/*--------------------------------*- C++ -*----------------------------------*\
  =========                 |
  \\      /  F ield         | OpenFOAM: The Open Source CFD Toolbox
   \\    /   O peration     | Website:  https://openfoam.org
    \\  /    A nd           | Version:  9
     \\/     M anipulation  |
\*---------------------------------------------------------------------------*/
FoamFile
{
    format      ascii;
    class       volScalarField;
    location    "1";
    object      CO.gas;
}
// * * * * * * * * * * * * * * * * * * * * * * * * * * * * * * * * * * * * * //

dimensions      [0 0 0 0 0 0 0];

internalField   nonuniform List<scalar> 
137980
(
6.95976e-161
1.60463e-160
6.96215e-161
4.91944e-161
3.90851e-161
6.24623e-161
8.15334e-161
1.02582e-160
2.04879e-160
4.55391e-160
9.54176e-161
2.59954e-161
9.59109e-162
5.53802e-162
2.6557e-162
5.52231e-162
1.1547e-161
1.36856e-161
1.59898e-161
4.62474e-161
1.53495e-160
2.01933e-161
1.85757e-162
2.77551e-163
8.71922e-164
3.38323e-163
2.03621e-162
1.28685e-161
7.46104e-161
3.2535e-160
2.07161e-160
3.30838e-161
2.95965e-162
1.02516e-163
5.59567e-165
3.91378e-164
5.30578e-163
4.96112e-162
3.06286e-161
1.29778e-160
1.09498e-160
1.3967e-161
9.36412e-163
2.9831e-164
2.24978e-165
4.14472e-165
7.32639e-164
9.50833e-163
8.63337e-162
5.92608e-161
5.52514e-161
6.616e-162
3.93034e-163
1.47951e-164
2.68134e-165
2.07441e-165
4.28733e-164
1.08357e-162
1.42114e-161
1.14153e-160
2.6444e-161
2.81861e-162
1.06295e-163
2.65078e-164
4.79032e-164
4.0825e-164
1.11078e-163
2.91343e-162
3.42178e-161
2.05133e-160
3.018e-161
1.58219e-162
2.99644e-163
6.40943e-163
8.96326e-163
7.19252e-163
1.72666e-163
1.18867e-162
1.88643e-161
9.65534e-161
1.04133e-160
6.94439e-162
5.68177e-162
7.77813e-162
7.56002e-162
5.58026e-162
1.9251e-162
6.46943e-163
5.48469e-162
6.59554e-161
2.54952e-160
4.03833e-161
5.25651e-161
5.44704e-161
4.28298e-161
3.38968e-161
1.6608e-161
1.31068e-161
1.54399e-161
2.43059e-160
5.27025e-162
2.73375e-162
2.31632e-162
2.73715e-162
2.40845e-162
3.11497e-162
3.92512e-162
5.71629e-162
6.71396e-162
5.80586e-162
4.29876e-162
1.41055e-162
4.02381e-163
2.55812e-163
2.79932e-163
7.50251e-163
2.02783e-162
4.01249e-162
5.98751e-162
1.0085e-161
8.19792e-162
3.25492e-162
3.40092e-163
3.76428e-164
4.26384e-164
2.61058e-163
1.25008e-162
4.06147e-162
1.0024e-161
2.41357e-161
1.07767e-161
5.0401e-162
1.16057e-162
9.02152e-164
1.75526e-164
1.07136e-163
6.0334e-163
2.72421e-162
7.7355e-162
1.56536e-161
1.03342e-161
5.46799e-162
1.42811e-162
1.52088e-163
2.14837e-164
4.26172e-164
1.7558e-163
7.68435e-163
2.78278e-162
8.11355e-162
2.40525e-162
1.18792e-162
2.99772e-163
6.87683e-164
1.38397e-163
4.27303e-164
1.25128e-163
6.57393e-163
2.99179e-162
1.19209e-161
1.61442e-162
3.65427e-163
9.64812e-164
5.18727e-163
1.03573e-162
5.31744e-163
1.06716e-163
6.02008e-163
2.98291e-162
1.36135e-161
1.27371e-162
2.26502e-163
5.56115e-163
2.50994e-162
4.3903e-162
3.3564e-162
9.82753e-163
3.77908e-163
1.33472e-162
5.1442e-162
2.39159e-162
7.16341e-163
2.65745e-162
6.64832e-162
1.16632e-161
9.82356e-162
5.00174e-162
1.27391e-162
1.03401e-162
2.32671e-162
1.20512e-162
1.81404e-162
3.32592e-162
1.05149e-161
2.06917e-161
1.86903e-161
7.87905e-162
2.96853e-162
1.24836e-162
3.64365e-162
1.03102e-161
6.60112e-163
6.92465e-163
4.5211e-163
3.31619e-163
3.14019e-163
3.33461e-163
3.30394e-163
2.08188e-163
6.486e-162
1.48559e-162
1.51395e-162
1.01348e-162
5.51151e-163
3.27583e-163
1.48637e-163
1.22866e-163
1.6862e-163
2.89543e-163
1.00004e-162
4.44153e-162
2.55198e-162
1.07963e-162
4.62518e-163
2.24977e-163
8.75967e-164
9.33978e-164
1.84742e-163
6.25097e-163
1.8242e-162
5.77722e-162
2.89384e-162
7.63121e-163
1.43963e-163
7.83917e-164
5.83164e-164
9.02179e-164
1.76612e-163
7.76737e-163
2.16943e-162
2.99051e-162
1.06112e-162
1.65469e-163
8.76778e-164
9.9709e-164
9.94319e-164
1.14225e-163
2.17356e-163
8.05768e-163
1.83579e-162
7.80601e-163
1.99304e-163
1.3232e-163
1.73715e-163
2.17196e-163
2.07941e-163
3.22627e-163
8.64267e-163
2.37612e-162
1.80089e-162
2.82097e-163
2.13798e-163
2.22563e-163
2.72482e-163
3.50893e-163
4.25625e-163
1.40135e-162
4.19106e-162
6.7118e-162
5.02173e-162
3.4345e-163
3.4508e-163
3.00242e-163
4.02282e-163
6.1345e-163
1.8827e-162
6.48953e-162
1.08648e-161
9.80914e-162
8.54618e-162
3.69686e-163
2.44207e-163
3.18293e-163
8.00831e-163
1.34543e-162
7.3825e-162
1.43101e-161
1.34216e-161
9.12983e-162
6.69316e-162
0
3.51973e-163
4.69615e-163
7.11391e-163
4.02177e-162
1.5131e-161
1.75458e-161
1.32876e-161
2.71792e-162
4.46142e-162
3.67151e-163
5.10001e-163
7.29621e-163
7.47011e-163
6.32148e-163
5.51947e-163
1.75912e-163
8.75754e-164
6.62718e-164
4.07916e-164
1.83169e-163
1.94477e-163
3.00903e-163
3.15957e-163
2.27989e-163
9.33234e-164
8.0144e-164
8.16963e-164
8.50117e-164
8.09886e-164
8.37345e-164
8.07901e-164
1.11236e-163
1.03769e-163
8.73574e-164
9.7248e-164
1.09156e-163
1.25437e-163
1.26638e-163
1.16302e-163
2.44639e-163
1.04506e-163
7.28758e-164
1.13538e-163
1.4946e-163
1.75242e-163
1.80685e-163
1.90569e-163
1.94903e-163
2.03067e-163
2.81051e-163
1.68199e-163
1.83088e-163
2.14219e-163
2.29907e-163
2.34175e-163
2.41063e-163
2.58955e-163
2.89453e-163
3.44953e-163
3.81105e-163
3.81524e-163
3.61541e-163
3.1575e-163
3.13105e-163
3.26633e-163
3.52798e-163
4.11433e-163
5.20743e-163
6.04992e-163
6.93992e-163
6.06991e-163
4.23715e-163
3.61025e-163
4.02598e-163
4.86718e-163
5.58586e-163
7.81359e-163
1.00432e-162
8.18148e-163
9.19826e-163
6.43925e-163
3.96731e-163
4.34944e-163
7.3577e-163
8.38501e-163
1.134e-162
1.93737e-162
1.36558e-162
6.73395e-163
8.80881e-163
3.25229e-163
3.85388e-163
6.96715e-163
1.58179e-162
1.73362e-162
3.51633e-162
3.38742e-162
1.17049e-162
1.00454e-162
1.63097e-163
1.52709e-163
6.91432e-163
1.23291e-162
3.08188e-162
4.00277e-162
7.73958e-162
3.87606e-162
2.91132e-162
2.47535e-162
3.46451e-164
1.34775e-164
9.42958e-165
6.75101e-165
5.24926e-165
9.71146e-165
1.84802e-164
2.26826e-164
2.47863e-164
2.49073e-164
4.21138e-164
1.2861e-164
9.71608e-165
7.10715e-165
1.06832e-164
2.18967e-164
2.13988e-164
2.04909e-164
2.09642e-164
2.45512e-164
5.24868e-164
1.10986e-164
8.97098e-165
1.30249e-164
2.64567e-164
2.30122e-164
1.70357e-164
1.54113e-164
1.8879e-164
3.20382e-164
5.73374e-164
1.79601e-164
1.56212e-164
3.10024e-164
2.6486e-164
1.46043e-164
1.24015e-164
1.40265e-164
2.59537e-164
6.28626e-164
6.18008e-164
3.46424e-164
3.57305e-164
2.6822e-164
1.61431e-164
1.26115e-164
1.29496e-164
2.17922e-164
6.82393e-164
1.14408e-163
6.42748e-164
3.72359e-164
2.60912e-164
1.79731e-164
1.50911e-164
1.56793e-164
2.0124e-164
5.60054e-164
1.46158e-163
1.29021e-163
6.13884e-164
4.4042e-164
2.72798e-164
2.05659e-164
2.44578e-164
2.89341e-164
4.59214e-164
1.80023e-163
1.77651e-163
7.81944e-164
6.06272e-164
3.90066e-164
2.48e-164
3.05072e-164
6.30021e-164
6.93269e-164
1.39926e-163
3.19647e-163
1.82858e-163
4.49536e-164
5.46472e-164
2.44087e-164
3.18839e-164
8.41027e-164
2.14027e-163
2.1112e-163
4.66749e-163
3.99101e-163
1.63717e-163
3.9378e-164
2.45041e-164
2.16734e-164
5.60943e-164
1.5253e-163
3.90866e-163
6.37673e-163
7.20136e-163
4.53266e-163
1.64414e-163
4.61537e-164
2.83896e-167
5.31018e-167
1.23718e-166
3.83166e-166
1.37216e-165
4.64424e-165
9.52128e-165
1.1564e-164
1.28137e-164
1.40106e-164
3.5596e-167
9.91208e-167
3.39963e-166
1.2404e-165
4.64918e-165
9.10908e-165
1.06391e-164
9.80999e-165
6.98822e-165
7.75376e-165
5.0774e-167
1.70321e-166
6.63729e-166
2.56998e-165
7.2413e-165
9.60415e-165
9.06093e-165
6.36258e-165
3.43437e-165
3.86752e-165
1.10711e-166
3.51718e-166
1.08628e-165
3.66833e-165
6.70641e-165
6.55284e-165
5.45546e-165
2.57006e-165
1.83272e-165
3.09236e-165
4.0602e-166
7.99962e-166
1.63573e-165
3.03969e-165
3.11852e-165
2.82626e-165
1.91717e-165
1.17866e-165
1.43133e-165
4.63244e-165
3.54002e-165
3.23026e-165
2.7799e-165
2.30947e-165
1.87515e-165
1.38055e-165
9.28387e-166
9.40825e-166
2.37597e-165
8.60336e-165
3.51788e-165
3.30366e-165
2.85716e-165
2.19264e-165
1.56338e-165
1.11465e-165
8.88574e-166
1.45196e-165
7.32122e-165
9.93243e-165
2.43709e-165
2.26543e-165
1.85758e-165
1.40909e-165
1.24303e-165
1.06992e-165
1.32457e-165
6.23728e-165
1.09821e-164
8.96372e-165
1.55169e-165
1.57096e-165
1.67293e-165
1.95211e-165
2.89064e-165
2.70301e-165
7.23371e-165
1.47265e-164
1.06416e-164
3.11006e-165
3.69166e-165
4.47283e-165
4.87222e-165
7.3081e-165
1.58008e-164
1.84403e-164
1.91999e-164
1.22467e-164
3.30583e-165
9.0535e-166
5.98368e-167
5.74722e-167
5.57369e-167
4.84266e-167
7.71552e-167
4.76298e-166
2.40876e-165
5.2852e-165
6.72731e-165
7.59702e-165
5.02832e-167
5.52155e-167
5.10895e-167
5.14767e-167
1.69528e-166
7.97213e-166
2.5181e-165
3.98398e-165
3.79731e-165
4.78323e-165
1.40866e-167
3.06216e-167
2.95935e-167
6.16923e-167
3.06088e-166
9.69855e-166
2.50118e-165
2.74618e-165
2.5318e-165
2.05124e-165
4.36594e-168
9.77642e-168
1.57514e-167
7.52328e-167
3.07511e-166
9.22211e-166
1.28742e-165
1.2129e-165
9.2922e-166
6.57133e-166
3.18166e-168
5.28969e-168
8.55211e-168
2.62211e-167
7.89849e-167
2.15958e-166
2.51064e-166
2.39312e-166
1.91918e-166
2.19961e-166
2.01581e-167
2.20111e-167
2.55188e-167
3.32778e-167
3.80389e-167
4.60313e-167
5.07631e-167
5.21474e-167
6.48253e-167
1.62603e-166
7.96885e-167
6.36847e-167
5.34691e-167
4.95472e-167
4.76578e-167
4.4655e-167
4.13361e-167
4.42917e-167
1.02752e-166
3.04527e-166
8.84328e-167
7.06932e-167
6.4611e-167
5.83799e-167
4.96408e-167
4.94859e-167
5.66382e-167
1.14224e-166
2.97209e-166
6.98199e-166
5.66829e-167
5.19561e-167
5.37212e-167
6.04758e-167
8.64597e-167
1.3638e-166
2.62785e-166
6.28446e-166
8.92854e-166
8.58445e-166
6.69371e-167
6.51203e-167
6.46584e-167
1.09386e-166
3.6464e-166
1.00164e-165
2.15314e-165
1.81763e-165
9.78737e-166
5.09012e-166
5.45263e-167
7.52275e-167
4.07218e-167
3.65415e-167
5.2432e-167
2.36123e-166
1.13718e-165
1.77611e-165
2.20892e-165
2.89607e-165
5.08608e-167
6.70887e-167
5.18567e-167
3.98485e-167
4.34517e-167
1.73711e-166
8.41854e-166
1.31238e-165
1.1417e-165
1.7539e-165
3.16502e-167
5.06676e-167
4.76322e-167
3.80172e-167
4.08041e-167
1.54638e-166
7.02414e-166
8.78792e-166
8.01813e-166
5.68378e-166
1.66395e-167
3.1254e-167
3.22615e-167
2.81966e-167
3.4707e-167
1.48255e-166
4.03423e-166
4.03181e-166
2.81049e-166
1.3633e-166
1.14504e-167
1.98272e-167
2.0979e-167
2.05593e-167
2.88046e-167
1.09096e-166
1.57219e-166
1.37794e-166
7.02738e-167
5.08231e-167
2.09033e-168
9.14266e-168
1.17409e-167
1.45365e-167
2.56309e-167
6.12723e-167
6.03837e-167
4.11765e-167
2.26849e-167
3.73177e-167
7.52558e-169
2.14297e-168
4.72906e-168
6.68245e-168
1.24276e-167
1.76068e-167
1.64947e-167
1.11451e-167
1.40088e-167
5.63658e-167
6.87533e-169
8.54787e-169
1.46735e-168
2.11592e-168
3.34881e-168
4.52775e-168
4.45916e-168
5.27552e-168
1.57097e-167
7.55096e-167
6.39992e-169
6.44882e-169
7.09748e-169
9.17157e-169
1.38619e-168
1.98974e-168
3.51171e-168
9.78662e-168
3.43298e-167
7.99471e-167
6.03266e-169
1.02442e-168
1.2109e-168
1.27843e-168
1.66376e-168
3.69779e-168
1.10972e-167
2.07773e-167
4.46006e-167
4.15752e-167
5.93858e-168
1.84132e-168
5.50244e-168
2.51704e-167
5.24477e-167
8.77198e-167
1.34401e-166
1.59313e-166
2.14814e-166
2.70456e-166
4.59311e-168
2.41793e-168
2.87889e-168
1.8581e-167
4.52132e-167
7.62766e-167
1.06025e-166
8.49625e-167
6.20975e-167
9.55592e-167
2.38824e-168
1.42044e-168
2.48602e-168
1.66303e-167
4.22397e-167
6.52774e-167
7.93083e-167
5.10419e-167
3.35076e-167
3.32594e-167
1.01417e-168
5.78797e-169
5.71596e-168
1.62131e-167
2.85598e-167
3.21293e-167
2.52746e-167
2.09394e-167
2.10993e-167
2.61672e-167
8.75164e-169
2.15822e-168
5.55603e-168
7.49803e-168
8.82435e-168
9.38682e-168
9.95358e-168
1.69202e-167
2.72354e-167
2.81307e-167
1.68808e-168
1.82709e-168
2.28585e-168
3.04366e-168
3.32496e-168
3.97854e-168
7.61817e-168
2.07961e-167
2.84499e-167
2.87338e-167
1.31023e-168
1.55214e-168
1.04279e-168
1.3366e-168
1.53429e-168
2.31377e-168
6.86877e-168
2.11492e-167
2.7234e-167
3.04025e-167
3.46057e-169
7.80656e-169
8.791e-169
9.38378e-169
9.46555e-169
1.4695e-168
6.07989e-168
1.93785e-167
2.34264e-167
2.50249e-167
1.27213e-169
2.56571e-169
3.46209e-169
5.27873e-169
6.79712e-169
9.34101e-169
4.38912e-168
1.84873e-167
1.97236e-167
1.95197e-167
9.42387e-170
1.24264e-169
1.56374e-169
2.30709e-169
3.21457e-169
5.14602e-169
2.51296e-168
1.97656e-167
1.67915e-167
1.29128e-167
5.75471e-170
1.20377e-169
5.90016e-170
4.59541e-171
1.32203e-169
8.48463e-169
6.04533e-169
1.11778e-169
3.99089e-169
1.309e-168
2.67904e-170
3.83362e-170
1.42585e-170
3.42187e-171
2.06322e-170
1.89182e-169
7.03548e-170
1.58823e-170
3.67154e-171
3.8787e-171
9.03305e-171
1.03306e-170
4.44395e-171
2.62953e-171
1.38092e-170
6.98171e-170
6.39147e-170
2.16321e-170
4.07197e-171
2.65302e-171
2.15503e-171
2.29268e-171
1.67601e-171
5.32209e-171
6.01538e-170
1.10145e-169
8.68743e-170
2.34793e-170
4.47158e-171
3.11138e-171
2.36549e-171
3.63572e-171
9.47631e-171
4.95049e-170
1.22136e-169
1.26649e-169
7.53065e-170
1.83495e-170
5.10906e-171
3.4754e-171
3.57536e-171
4.19657e-171
1.09954e-170
5.05269e-170
9.38363e-170
9.46645e-170
6.33773e-170
2.00745e-170
7.76565e-171
3.89049e-171
1.4634e-170
1.0426e-170
9.93801e-171
1.28318e-170
2.51531e-170
4.58862e-170
4.83248e-170
3.27656e-170
1.348e-170
5.11133e-171
3.63201e-170
3.05412e-170
2.20866e-170
1.60162e-170
1.50626e-170
1.72615e-170
3.07618e-170
3.39045e-170
2.22588e-170
7.44358e-171
3.9718e-170
3.26398e-170
2.83406e-170
2.29847e-170
1.73311e-170
1.60616e-170
1.99455e-170
3.42995e-170
3.26092e-170
1.429e-170
2.69364e-170
2.07548e-170
1.83842e-170
1.77143e-170
1.58809e-170
1.4858e-170
1.55485e-170
7.90315e-170
1.11174e-169
4.9665e-170
1.05311e-173
9.2088e-174
5.02184e-174
1.70475e-174
1.16897e-173
2.95583e-173
2.01634e-173
9.10269e-174
9.19584e-174
1.77828e-173
3.33201e-174
2.88127e-174
1.44375e-174
1.07306e-174
5.41029e-174
1.7989e-173
1.64472e-173
1.53295e-173
1.09375e-173
5.0731e-174
1.75536e-174
1.11774e-174
9.06812e-175
1.88143e-174
7.12232e-174
1.90685e-173
2.50965e-173
2.46193e-173
1.84959e-173
8.30013e-174
7.74544e-174
2.14807e-174
2.57933e-174
7.13429e-174
2.40844e-173
4.00956e-173
4.68256e-173
4.65978e-173
3.50855e-173
1.53363e-173
2.28928e-172
6.29335e-173
3.3874e-173
4.13185e-173
6.82331e-173
9.38295e-173
1.05261e-172
1.03206e-172
7.3961e-173
3.17896e-173
2.63104e-171
1.06554e-171
4.5444e-172
3.29808e-172
3.28353e-172
3.23811e-172
3.06224e-172
2.59343e-172
1.49223e-172
6.46538e-173
5.01103e-171
3.31737e-171
2.26037e-171
1.50437e-171
1.00014e-171
6.73372e-172
4.93039e-172
4.017e-172
2.60725e-172
1.15558e-172
1.9965e-171
1.77287e-171
1.50149e-171
1.1703e-171
8.67355e-172
6.07692e-172
4.66636e-172
4.20969e-172
3.41154e-172
1.61167e-172
4.46038e-172
4.50045e-172
4.42991e-172
4.19138e-172
3.43746e-172
2.45304e-172
2.42075e-172
3.44126e-172
4.07948e-172
2.23955e-172
1.17484e-172
1.38426e-172
1.60782e-172
1.63056e-172
1.51014e-172
1.3547e-172
2.57123e-172
1.25263e-171
1.24926e-171
2.82136e-172
2.9725e-174
1.72327e-174
5.18068e-175
2.57715e-175
2.034e-175
4.1232e-175
1.13543e-174
1.33617e-174
1.27759e-174
9.51238e-175
2.1346e-175
1.58397e-175
1.08804e-175
1.43978e-175
3.15631e-175
1.35506e-174
2.87256e-174
2.94609e-174
2.33557e-174
1.08461e-174
5.24662e-176
1.5645e-175
2.76355e-175
5.06281e-175
1.16597e-174
3.90194e-174
5.48658e-174
4.99548e-174
2.64966e-174
9.10174e-175
2.9904e-175
7.95827e-175
1.24066e-174
1.78313e-174
3.39912e-174
8.07753e-174
8.73601e-174
6.71037e-174
2.18749e-174
5.63743e-175
2.25603e-174
2.75465e-174
3.59603e-174
4.62958e-174
8.19755e-174
1.3974e-173
1.37958e-173
8.32402e-174
2.04151e-174
4.46147e-175
1.62999e-173
9.01661e-174
8.51049e-174
1.00455e-173
1.67527e-173
2.23326e-173
2.13748e-173
9.84766e-174
2.05499e-174
6.27582e-175
3.06096e-173
1.54361e-173
1.51806e-173
2.06914e-173
3.11849e-173
3.17688e-173
2.55639e-173
9.35356e-174
2.14697e-174
1.05487e-174
2.80403e-173
1.78105e-173
2.60814e-173
4.98946e-173
5.13609e-173
3.91747e-173
2.51426e-173
8.86066e-174
3.11985e-174
2.45839e-174
1.7493e-173
2.76003e-173
7.59985e-173
1.11999e-172
9.29308e-173
4.2395e-173
2.39192e-173
8.88659e-174
8.51235e-174
1.21211e-173
2.43657e-173
1.09383e-172
2.38896e-172
2.71373e-172
2.06104e-172
5.76091e-173
2.39206e-173
9.64352e-174
8.97558e-174
1.41918e-173
2.73245e-175
6.70536e-175
9.14184e-175
7.25973e-175
2.34262e-175
5.2681e-176
1.34559e-176
4.50749e-177
2.00346e-177
2.15228e-177
4.87921e-176
1.56016e-175
1.65781e-175
1.20867e-175
3.57118e-176
9.71736e-177
4.97211e-177
3.45081e-177
2.88842e-177
3.942e-177
4.85604e-176
9.26788e-176
6.36098e-176
3.33851e-176
2.17138e-176
2.06303e-176
1.85845e-176
1.22699e-176
6.50452e-177
7.95654e-177
1.61479e-175
5.47042e-175
4.06307e-175
2.42794e-175
1.63461e-175
1.26556e-175
7.58488e-176
3.10348e-176
1.19494e-176
1.70606e-176
3.88283e-175
1.78888e-174
1.64779e-174
1.11466e-174
7.30445e-175
4.90494e-175
2.47392e-175
8.28162e-176
2.74587e-176
4.94851e-176
1.04218e-174
4.34546e-174
4.4152e-174
3.28475e-174
2.1895e-174
1.4336e-174
6.94805e-175
2.15272e-175
7.11084e-176
1.52563e-175
3.0318e-174
9.69017e-174
9.45191e-174
7.00858e-174
4.87263e-174
3.23919e-174
1.60565e-174
5.20836e-175
1.37537e-175
1.57499e-175
9.0687e-174
1.90886e-173
1.69648e-173
1.246e-173
9.06565e-174
5.9715e-174
3.02467e-174
1.07998e-174
2.72051e-175
1.68396e-175
2.48153e-173
3.24641e-173
2.61414e-173
2.22608e-173
1.62467e-173
9.8826e-174
4.73546e-174
1.81549e-174
5.07014e-175
1.96538e-175
4.64596e-173
4.97227e-173
4.72715e-173
4.35167e-173
3.15716e-173
1.68572e-173
7.0779e-174
2.52368e-174
8.25027e-175
2.68985e-175
3.29231e-177
7.94442e-177
8.73243e-177
6.52072e-177
1.26911e-177
2.2989e-178
6.91584e-179
6.40801e-179
1.94509e-178
1.5296e-177
5.84626e-178
1.40629e-177
1.3743e-177
8.45285e-178
1.90219e-178
1.07061e-178
1.11797e-178
1.30251e-178
4.78158e-178
4.4232e-177
6.50275e-179
1.3022e-178
1.26792e-178
1.93344e-178
4.14878e-178
5.67346e-178
5.38765e-178
3.72197e-178
7.70333e-178
7.00148e-177
2.64359e-178
4.60344e-178
1.14175e-177
2.9749e-177
4.06189e-177
3.89152e-177
2.90286e-177
1.12292e-177
1.04575e-177
6.28606e-177
2.56625e-177
6.12539e-177
1.3633e-176
2.35617e-176
2.47861e-176
2.20254e-176
1.35576e-176
4.66047e-177
1.75075e-177
5.52623e-177
1.75762e-176
4.29536e-176
8.33112e-176
1.13939e-175
1.11912e-175
9.43796e-176
5.15202e-176
1.81772e-176
4.37412e-177
5.73989e-177
9.18415e-176
2.13445e-175
3.53255e-175
4.16509e-175
3.93306e-175
3.05846e-175
1.49979e-175
5.4314e-176
1.25021e-176
7.2939e-177
3.93655e-175
8.30468e-175
1.16787e-174
1.24659e-174
1.1252e-174
7.6133e-175
3.33168e-175
1.16709e-175
2.99472e-176
9.53447e-177
1.42117e-174
2.60459e-174
3.19287e-174
3.23856e-174
2.76457e-174
1.60635e-174
5.99909e-175
1.76116e-175
4.59796e-176
1.15852e-176
4.36704e-174
6.78179e-174
7.68655e-174
7.70719e-174
6.31523e-174
3.57894e-174
1.34997e-174
3.12443e-175
6.15993e-176
1.35877e-176
2.68832e-179
2.97826e-179
2.44543e-179
1.04802e-179
7.51085e-180
9.28367e-180
2.10038e-179
2.85175e-179
4.75422e-179
1.24645e-178
7.16565e-180
6.59323e-180
5.14915e-180
5.44007e-180
7.62806e-180
1.62121e-179
3.31189e-179
3.32044e-179
6.9648e-179
3.04458e-178
1.00921e-179
4.75392e-180
4.96337e-180
9.41165e-180
2.07525e-179
4.201e-179
4.11433e-179
3.40381e-179
9.36777e-179
6.1785e-178
1.48716e-179
6.89617e-180
1.58281e-179
4.81211e-179
9.43273e-179
9.48438e-179
6.73193e-179
3.79469e-179
1.37892e-178
1.21728e-177
1.17887e-179
3.10938e-179
1.04062e-178
2.92517e-178
4.39014e-178
3.7941e-178
1.92054e-178
6.31401e-179
2.0148e-178
2.23182e-177
5.53185e-179
2.26033e-178
6.80386e-178
1.65129e-177
2.1287e-177
1.76822e-177
7.38026e-178
1.56121e-178
2.50668e-178
3.29951e-177
3.9239e-178
1.36484e-177
3.77113e-177
7.91924e-177
9.16562e-177
7.25849e-177
2.62173e-177
4.57737e-178
2.78895e-178
2.90088e-177
2.24116e-177
6.88285e-177
1.76772e-176
3.18771e-176
3.44135e-176
2.5945e-176
8.87458e-177
1.6283e-177
2.8441e-178
1.57738e-177
1.07347e-176
2.93263e-176
6.88473e-176
1.09216e-175
1.15396e-175
8.62204e-176
3.63382e-176
1.0193e-176
9.21629e-178
6.96128e-178
4.38049e-176
1.05423e-175
2.23857e-175
3.33004e-175
3.62939e-175
3.06041e-175
1.89919e-175
1.05785e-175
3.32528e-176
4.8186e-177
6.24217e-180
6.51532e-180
5.93058e-180
8.69542e-180
1.77539e-179
3.94072e-179
4.9872e-179
4.46008e-179
3.79727e-179
3.77465e-179
5.09586e-180
3.77845e-180
4.76673e-180
1.44473e-179
3.30616e-179
5.16391e-179
5.10365e-179
3.88781e-179
3.38798e-179
4.29307e-179
4.46839e-180
3.19502e-180
6.5883e-180
1.94293e-179
3.65966e-179
5.00641e-179
3.86117e-179
3.4356e-179
3.72614e-179
9.62697e-179
5.98875e-180
3.29067e-180
7.23077e-180
1.68771e-179
2.64472e-179
2.83621e-179
2.43686e-179
3.85024e-179
7.80796e-179
3.27901e-178
5.55493e-180
3.43865e-180
5.75448e-180
6.28252e-180
8.243e-180
1.14886e-179
2.00067e-179
5.77218e-179
2.21721e-178
9.84568e-178
2.91716e-180
6.37673e-180
6.05859e-180
4.44885e-180
5.0463e-180
7.91562e-180
1.65176e-179
6.23661e-179
3.38886e-178
1.55238e-177
7.26262e-180
2.14089e-179
1.75012e-179
9.51923e-180
8.01066e-180
9.56785e-180
1.53564e-179
3.8585e-179
2.50333e-178
1.19878e-177
3.82684e-179
7.7464e-179
6.25554e-179
3.70698e-179
3.11347e-179
3.28448e-179
4.59236e-179
5.43615e-179
8.94335e-179
3.74959e-178
1.70095e-178
2.44718e-178
2.0297e-178
1.44363e-178
1.43393e-178
1.87078e-178
3.43759e-178
5.69397e-178
6.45758e-178
1.20313e-177
6.24862e-178
7.02553e-178
6.34431e-178
5.53837e-178
6.61397e-178
1.10501e-177
2.56999e-177
5.73233e-177
1.01508e-176
2.45522e-176
9.77137e-180
7.33962e-180
1.12792e-179
2.8912e-179
4.93853e-179
5.58804e-179
5.0958e-179
3.562e-179
1.6747e-179
1.46179e-179
3.64946e-180
4.37568e-180
2.06218e-179
4.7172e-179
5.681e-179
5.80968e-179
5.07183e-179
3.11991e-179
1.7148e-179
1.23224e-179
2.45431e-180
7.37008e-180
2.72606e-179
4.85693e-179
5.43568e-179
5.38807e-179
4.29728e-179
1.99516e-179
9.50221e-180
6.70675e-180
2.46695e-180
9.09925e-180
2.35505e-179
3.32237e-179
4.0281e-179
4.0828e-179
2.69324e-179
9.12776e-180
6.37558e-180
1.03341e-179
2.66198e-180
6.5116e-180
7.2951e-180
9.4604e-180
1.94189e-179
2.62462e-179
1.92221e-179
8.61784e-180
1.07798e-179
3.70091e-179
2.19933e-180
2.48079e-180
2.66384e-180
3.07874e-180
9.11651e-180
1.79302e-179
1.81761e-179
1.30212e-179
1.84184e-179
5.82253e-179
1.37819e-180
2.3533e-180
2.9667e-180
1.89284e-180
4.0419e-180
1.35877e-179
1.80487e-179
1.66103e-179
1.87084e-179
4.39153e-179
1.40384e-180
7.30044e-180
9.20811e-180
2.75924e-180
2.66874e-180
5.14183e-180
1.1154e-179
1.38066e-179
1.53619e-179
2.34257e-179
7.60575e-180
2.91658e-179
3.19409e-179
9.02702e-180
4.19249e-180
2.9676e-180
3.29409e-180
6.01222e-180
1.32665e-179
5.04577e-179
6.31228e-179
1.15051e-178
1.1593e-178
4.15583e-179
1.86812e-179
6.61247e-180
3.45875e-180
9.47614e-180
6.18417e-179
5.52347e-178
1.10037e-179
1.07086e-179
1.67525e-179
2.51922e-179
2.22968e-179
1.28797e-179
3.7935e-180
2.30999e-180
2.29962e-180
2.12863e-180
5.68379e-180
1.14187e-179
2.62881e-179
2.88122e-179
1.35922e-179
5.37344e-180
3.25597e-180
3.08909e-180
2.59452e-180
1.92698e-180
5.72291e-180
1.91964e-179
2.94413e-179
2.70338e-179
1.12096e-179
5.47789e-180
3.7368e-180
2.86287e-180
2.61094e-180
2.49011e-180
6.30846e-180
1.95067e-179
2.65299e-179
2.7576e-179
1.94572e-179
7.42535e-180
2.62634e-180
1.40125e-180
1.35077e-180
1.52717e-180
5.51058e-180
1.00182e-179
1.50542e-179
2.46951e-179
2.68241e-179
1.44963e-179
2.62329e-180
1.52609e-180
2.27052e-180
3.38002e-180
2.46628e-180
2.27936e-180
2.9853e-180
8.43015e-180
2.00204e-179
2.04347e-179
7.08264e-180
5.05531e-180
8.17393e-180
9.28062e-180
1.23086e-180
1.03742e-180
1.28107e-180
1.89928e-180
9.31205e-180
2.27e-179
2.1285e-179
1.44419e-179
1.36688e-179
1.14519e-179
1.08169e-180
9.32655e-181
1.39398e-180
1.12819e-180
3.78548e-180
1.69718e-179
2.43532e-179
1.70103e-179
1.37454e-179
1.09635e-179
9.46057e-181
1.53021e-180
3.15443e-180
1.08642e-180
1.82674e-180
5.39515e-180
7.8815e-180
7.2764e-180
5.27993e-180
4.81857e-180
1.41375e-180
7.95558e-180
1.054e-179
1.84571e-180
9.17088e-181
7.26089e-181
6.42607e-181
4.97824e-181
7.1538e-181
1.8257e-180
1.97732e-179
1.86843e-179
2.03575e-179
2.82525e-179
2.14028e-179
4.00826e-180
3.01803e-181
2.74165e-182
1.43286e-182
1.75795e-182
1.22353e-179
1.26741e-179
1.49424e-179
2.21098e-179
2.64213e-179
1.91564e-180
8.65764e-182
1.47111e-182
1.69847e-182
4.74067e-182
1.0845e-179
1.14846e-179
1.38281e-179
1.73444e-179
1.44223e-179
8.33006e-181
6.16672e-182
1.57945e-182
2.20487e-182
6.50584e-182
7.59214e-180
7.14476e-180
5.28953e-180
3.42832e-180
2.55587e-180
3.79203e-181
7.59157e-182
2.57754e-182
2.65443e-182
7.25871e-182
6.07235e-180
5.88082e-180
4.77243e-180
2.493e-180
1.1225e-180
4.36451e-181
2.20753e-181
1.54488e-181
1.66928e-181
2.96778e-181
2.97151e-180
2.77298e-180
3.45268e-180
3.7126e-180
2.97905e-180
1.45907e-180
8.00049e-181
7.8088e-181
9.84009e-181
1.25609e-180
1.63585e-180
1.41711e-180
1.45332e-180
1.75784e-180
3.58608e-180
4.50962e-180
3.84876e-180
3.19736e-180
2.05303e-180
1.59635e-180
1.52257e-180
1.28984e-180
1.07723e-180
8.79495e-181
1.58032e-180
5.1637e-180
6.0492e-180
3.68156e-180
1.20861e-180
3.60698e-181
1.26321e-180
1.28699e-180
9.24899e-181
5.7424e-181
1.11112e-180
2.70539e-180
4.01328e-180
7.4644e-181
1.08567e-181
3.86063e-182
1.22436e-180
1.26564e-180
8.3938e-181
3.37157e-181
9.9974e-181
1.14e-180
8.78139e-181
7.33803e-182
2.72759e-182
2.13532e-182
1.81063e-179
2.83165e-179
3.92203e-179
3.17937e-179
2.53309e-180
1.1197e-181
4.54072e-182
1.86491e-182
2.88792e-183
9.4097e-184
2.9667e-179
3.05464e-179
3.48135e-179
3.0265e-179
3.15674e-180
4.41848e-182
4.42193e-183
2.45852e-183
1.15017e-183
2.36022e-183
1.99625e-179
2.40711e-179
2.94623e-179
1.97832e-179
1.36273e-180
3.72952e-182
1.93587e-183
1.0083e-183
1.19319e-183
3.07044e-183
1.77999e-179
2.44177e-179
2.38167e-179
8.55598e-180
8.52885e-181
6.73625e-182
5.55557e-183
1.46992e-183
1.40313e-183
2.59295e-183
7.52019e-180
1.11061e-179
1.12588e-179
3.41586e-180
5.75344e-181
1.33928e-181
3.81244e-182
1.32747e-182
7.21194e-183
5.95276e-183
2.4329e-180
2.40676e-180
1.76654e-180
5.38438e-181
2.26191e-181
1.70771e-181
1.38137e-181
1.10679e-181
9.35379e-182
8.5215e-182
1.59479e-180
1.46325e-180
1.18725e-180
6.53267e-181
4.38663e-181
2.97177e-181
1.57287e-181
1.02116e-181
8.74718e-182
9.92358e-182
1.84198e-180
2.01611e-180
1.78542e-180
1.22719e-180
5.31132e-181
1.59171e-181
3.47864e-182
1.72994e-182
1.4028e-182
2.27098e-182
2.07373e-180
2.27923e-180
1.83768e-180
1.60107e-180
1.06536e-180
8.49069e-182
1.99308e-182
1.33762e-182
6.76332e-183
4.04354e-183
1.8439e-180
1.85259e-180
7.52346e-181
5.861e-181
1.72258e-180
3.41589e-181
3.25302e-182
4.43892e-182
1.50515e-182
3.08173e-183
1.14076e-182
2.63753e-181
3.01507e-180
2.05142e-179
1.38285e-179
1.68767e-181
1.2128e-183
3.33541e-184
2.25689e-184
7.24408e-185
7.29902e-181
2.37922e-180
1.03544e-179
3.01469e-179
1.12577e-179
1.00103e-181
1.1543e-183
1.78765e-184
1.58666e-184
1.38441e-184
1.92275e-180
5.46155e-180
1.78597e-179
3.11765e-179
7.71204e-180
9.28244e-182
2.35435e-183
2.18965e-184
1.87907e-184
3.92678e-184
4.46043e-180
1.00212e-179
2.46353e-179
2.98161e-179
6.07861e-180
1.93308e-181
2.98256e-182
3.69895e-183
7.13256e-184
5.81463e-184
1.18845e-179
2.157e-179
2.81967e-179
2.60547e-179
4.82027e-180
5.15835e-181
1.74885e-181
5.61651e-182
1.40523e-182
6.05859e-183
1.81507e-179
2.25494e-179
2.39324e-179
1.43719e-179
1.98732e-180
3.48296e-181
1.55096e-181
9.70473e-182
6.92036e-182
4.58359e-182
8.55232e-180
9.12081e-180
7.97664e-180
2.75163e-180
7.34679e-181
4.45093e-181
3.6094e-181
1.73851e-181
7.00642e-182
4.39787e-182
2.21886e-180
2.23765e-180
1.92859e-180
1.27547e-180
8.30539e-181
5.89912e-181
1.24763e-181
1.1136e-182
2.45478e-183
1.45307e-183
2.77231e-180
2.93747e-180
1.87911e-180
1.72144e-180
9.78825e-181
1.90946e-181
2.67335e-182
3.15719e-183
1.80573e-183
8.60897e-184
4.85059e-180
3.09006e-180
8.50538e-181
8.91013e-181
1.84702e-180
3.1396e-181
1.4254e-182
7.6973e-183
8.66771e-183
1.03419e-183
1.23166e-183
3.21241e-184
1.25673e-182
2.21158e-180
2.96325e-180
4.48999e-182
5.93591e-184
5.82958e-185
4.09148e-185
1.11916e-185
1.20076e-182
1.05741e-182
1.92337e-181
6.57866e-180
3.18495e-180
5.46044e-182
1.55282e-183
4.58125e-185
2.76427e-185
4.99301e-185
4.24729e-182
6.33073e-182
7.41361e-181
9.35562e-180
3.2993e-180
9.306e-182
9.41118e-183
4.28447e-184
6.7859e-185
7.90226e-185
1.00871e-181
2.7881e-181
3.06808e-180
1.43736e-179
3.0542e-180
2.72033e-181
1.37747e-181
1.72408e-182
4.00432e-183
1.52197e-183
9.87731e-181
2.62992e-180
1.21663e-179
1.94849e-179
3.32804e-180
1.12532e-180
8.32731e-181
2.31789e-181
1.12599e-181
7.72878e-182
8.40741e-180
1.49855e-179
2.02322e-179
1.68806e-179
2.95283e-180
1.32992e-180
1.04251e-180
6.29972e-181
4.80873e-181
2.43166e-181
1.42664e-179
1.63519e-179
1.68924e-179
6.83123e-180
2.29258e-180
1.97542e-180
1.93639e-180
6.82713e-181
1.34692e-181
2.31314e-182
7.27945e-180
7.34038e-180
5.51316e-180
2.73875e-180
2.10745e-180
1.92979e-180
1.16432e-180
1.01405e-181
4.28748e-183
3.2536e-184
4.1621e-180
3.69408e-180
3.17085e-180
2.89979e-180
2.48004e-180
9.81051e-181
1.49863e-181
7.24011e-183
3.86461e-184
1.30752e-184
4.91702e-180
3.14307e-180
1.37254e-180
1.25995e-180
2.43707e-180
2.06717e-180
8.24783e-182
2.16567e-183
9.60774e-184
2.81069e-184
2.1093e-184
3.68976e-185
1.32399e-184
2.16423e-182
5.98017e-181
3.90965e-181
4.77687e-183
3.04819e-185
9.96393e-187
2.4449e-187
2.53956e-183
4.81245e-184
2.47541e-183
1.44717e-181
1.06481e-180
4.03073e-181
1.05041e-182
1.27256e-184
3.40415e-186
1.57027e-186
1.01793e-182
7.82851e-183
5.10961e-182
6.07497e-181
1.8246e-180
4.71675e-181
4.25701e-182
2.29432e-183
3.19512e-184
7.57296e-185
6.82611e-182
1.33727e-181
5.06917e-181
1.89337e-180
2.49148e-180
1.32562e-180
8.87527e-181
1.13277e-181
3.5372e-182
1.51046e-182
8.17427e-181
1.48762e-180
3.46921e-180
5.81235e-180
4.47585e-180
4.76137e-180
4.63868e-180
1.78796e-180
1.20064e-180
8.80089e-181
8.13419e-180
1.20592e-179
1.4611e-179
1.01955e-179
6.57962e-180
7.48479e-180
4.99622e-180
1.76568e-180
6.66443e-181
2.61255e-181
1.90177e-179
1.79762e-179
1.57591e-179
9.86162e-180
8.62273e-180
9.13977e-180
5.16853e-180
6.95144e-181
4.66502e-182
4.31637e-183
1.65131e-179
1.35764e-179
1.03388e-179
8.31089e-180
8.38077e-180
8.2475e-180