/*--------------------------------*- C++ -*----------------------------------*\
  =========                 |
  \\      /  F ield         | OpenFOAM: The Open Source CFD Toolbox
   \\    /   O peration     | Website:  https://openfoam.org
    \\  /    A nd           | Version:  9
     \\/     M anipulation  |
\*---------------------------------------------------------------------------*/
FoamFile
{
    format      ascii;
    class       volScalarField;
    location    "1";
    object      f1.gas;
}
// * * * * * * * * * * * * * * * * * * * * * * * * * * * * * * * * * * * * * //

dimensions      [0 0 0 0 0 0 0];

internalField   nonuniform List<scalar> 
137980
(
0.00420352
0.00457041
0.00270765
0.0026096
0.00378571
0.00383723
0.00363468
0.00400467
0.00474588
0.00521433
0.00544944
0.00610814
0.00465752
0.00461133
0.00692515
0.00537218
0.00480459
0.00570183
0.00667997
0.00617153
0.00299962
0.00410968
0.00743575
0.00785278
0.00805397
0.00760144
0.00663312
0.00591192
0.00478267
0.00460475
0.0027978
0.0034601
0.00514438
0.00642572
0.00733079
0.00776846
0.00643514
0.00479954
0.0029178
0.00252391
0.00264215
0.00340142
0.00443115
0.00560051
0.00623965
0.00639558
0.00639635
0.00574569
0.00365223
0.00276424
0.00219188
0.00262894
0.0036517
0.0049963
0.00481704
0.00530428
0.00605899
0.00591261
0.00376287
0.00326931
0.00200689
0.00287819
0.0049044
0.00445011
0.00426787
0.0048693
0.00601461
0.00563304
0.00352532
0.00340662
0.00237725
0.00416577
0.00432162
0.00332176
0.00379427
0.00419618
0.00649358
0.00641148
0.00365723
0.00305666
0.00260833
0.00375866
0.00311078
0.00273106
0.00299945
0.00286969
0.00303139
0.0064796
0.00513308
0.00252566
0.00282335
0.0034311
0.00264065
0.00223981
0.00246905
0.00244942
0.0020448
0.00281294
0.00462206
0.00286059
0.00123675
0.00188475
0.00188809
0.00159023
0.00159067
0.00157225
0.00145289
0.00139746
0.00135997
0.00124687
0.00172572
0.00193519
0.00227511
0.00237622
0.00213167
0.00178838
0.00172402
0.00174892
0.00160646
0.00137334
0.00145669
0.00155901
0.00225081
0.00270508
0.00251727
0.00214665
0.00197162
0.00184693
0.00171065
0.00161845
0.00145998
0.00150696
0.0017634
0.00239898
0.00234634
0.00212025
0.00181563
0.00163287
0.00150195
0.00138377
0.00149963
0.00154058
0.00171307
0.00223593
0.00210839
0.00192313
0.00173003
0.00153346
0.00134109
0.00123398
0.0014936
0.00153124
0.00169917
0.00201413
0.00182357
0.00173556
0.00160288
0.00154319
0.00135062
0.00126416
0.00152052
0.00158686
0.0019876
0.00180801
0.00175924
0.00170211
0.00168592
0.00157048
0.00135538
0.00131819
0.00169415
0.00182964
0.00187336
0.00175745
0.00178641
0.00160101
0.00176921
0.00182933
0.00162371
0.00141919
0.00172012
0.00176593
0.00168058
0.00165461
0.00172384
0.00164429
0.00137415
0.00162527
0.00164976
0.00148916
0.00153509
0.00148083
0.00143722
0.00149225
0.0016103
0.00161244
0.00135834
0.00142646
0.00150802
0.00143731
0.000902779
0.00098376
0.00118225
0.0011741
0.00111557
0.001038
0.000981291
0.000979508
0.00108627
0.00104214
0.00108655
0.00126837
0.00129113
0.00129526
0.00127469
0.00119326
0.00114034
0.00115876
0.00122615
0.00123386
0.00132386
0.0013367
0.00133321
0.00133934
0.00130544
0.00120471
0.00118463
0.00121547
0.00124598
0.00118439
0.00131811
0.00135112
0.00133762
0.00134876
0.0012538
0.00121471
0.00120884
0.00122644
0.0012446
0.00115826
0.00143409
0.00137172
0.00128056
0.00132091
0.00131107
0.0012842
0.00125345
0.00124787
0.00127293
0.00118568
0.00133709
0.00135104
0.00138762
0.00138498
0.00133776
0.00129109
0.00127434
0.00128405
0.00128468
0.00127378
0.00134428
0.00141799
0.00145383
0.00138243
0.00127848
0.00125133
0.00127401
0.00128812
0.00127239
0.00127588
0.00142653
0.00151256
0.00143891
0.00122681
0.00120226
0.00123545
0.00127993
0.0012704
0.0012038
0.00121424
0.00147579
0.00140833
0.00111314
0.00116864
0.00118491
0.00125838
0.00124503
0.00118509
0.00100909
0.0010337
0.00114586
0.000978461
0.00100118
0.0010525
0.00110055
0.00123311
0.00116569
0.000952867
0.000794409
0.000778774
0.000751928
0.000740426
0.000729783
0.000739436
0.000743852
0.000745632
0.000870435
0.00112454
0.00119939
0.00121605
0.000826636
0.000786972
0.000740564
0.000727068
0.000718014
0.000951583
0.0011779
0.00124563
0.00123737
0.00122739
0.000817579
0.000758604
0.000735859
0.000755788
0.00117802
0.00128815
0.00129593
0.00128156
0.00124462
0.00122694
0.000854682
0.000824491
0.000886818
0.0012795
0.00132633
0.0013228
0.00130202
0.00124702
0.00118871
0.00118114
0.00112354
0.00113636
0.00126728
0.00133789
0.00133306
0.00130171
0.00121515
0.00111417
0.00109367
0.0011093
0.00117923
0.00123221
0.00135839
0.00135419
0.00130875
0.00118241
0.00106759
0.00105163
0.00106646
0.00110377
0.00130964
0.00143792
0.0014327
0.00134416
0.00112743
0.00100938
0.00101041
0.00103318
0.00108819
0.00106469
0.00156202
0.00154878
0.00138704
0.00101307
0.00094858
0.000960557
0.0010004
0.00111927
0.0010946
0.00081359
0.00157883
0.00138613
0.000924079
0.00089218
0.000931415
0.000992787
0.00114334
0.00117943
0.000904434
0.000731628
0.00137288
0.000744309
0.000848836
0.000914286
0.00101151
0.00114925
0.00120742
0.00100581
0.00088855
0.00079426
0.000895961
0.000875743
0.0008228
0.000831594
0.000878881
0.000968837
0.00102396
0.00110064
0.00111639
0.00114048
0.000975321
0.000988833
0.000974509
0.00101858
0.00105079
0.00110369
0.00117928
0.00116938
0.001131
0.00112654
0.0010159
0.00103057
0.00101255
0.000979961
0.00115837
0.00124729
0.00123342
0.0011828
0.00109317
0.00107953
0.00108079
0.000943287
0.000995663
0.0011549
0.00127139
0.00126867
0.00123069
0.00111267
0.00103426
0.0010125
0.00125769
0.00110452
0.00110336
0.00123253
0.00129968
0.00127488
0.00116912
0.00105105
0.00100867
0.000981836
0.0014178
0.00129735
0.00133445
0.00137362
0.00133289
0.00121617
0.00104902
0.00100509
0.000982753
0.000911529
0.00161006
0.00155945
0.00151758
0.00140357
0.00116729
0.000989997
0.000973375
0.000982167
0.000933511
0.00073669
0.00163404
0.00159552
0.00138792
0.000946379
0.000887884
0.000902955
0.000955827
0.000974475
0.000824463
0.000639683
0.00157055
0.00128173
0.000703514
0.000743697
0.000854222
0.00097031
0.00100081
0.000914222
0.000732675
0.000603578
0.00143054
0.000479186
0.000531732
0.000775975
0.00093159
0.000967299
0.000930297
0.000813525
0.000692564
0.000588956
0.000290069
0.000310798
0.000355672
0.000499324
0.00087416
0.00104391
0.00107197
0.00108458
0.00110096
0.00110052
0.000288318
0.000334407
0.00046851
0.000842841
0.00104536
0.001102
0.00112656
0.00114314
0.00112928
0.00107442
0.000313993
0.000382722
0.000645001
0.000962461
0.00108993
0.00116648
0.00119768
0.00119612
0.00117112
0.00106881
0.000369991
0.000492094
0.000788885
0.00102184
0.00115613
0.00121889
0.00124928
0.00124243
0.00119355
0.00105098
0.000622167
0.000835973
0.0010512
0.00121553
0.00130089
0.00131357
0.0012997
0.00126265
0.00116558
0.00094477
0.00139768
0.00140467
0.00140367
0.00140149
0.0013908
0.00135115
0.00130269
0.0012091
0.000987281
0.000769943
0.00148098
0.00146987
0.00144708
0.00141414
0.0013471
0.00124947
0.00114955
0.000932291
0.000708832
0.000593967
0.00129431
0.00127719
0.00123008
0.00112957
0.00102058
0.000886601
0.000737452
0.000618615
0.000551724
0.000501429
0.000984963
0.000946942
0.000845952
0.000702067
0.000629862
0.000569317
0.000533915
0.000497045
0.000463658
0.000445255
0.000572205
0.000378079
0.000363283
0.000399128
0.000463991
0.000430556
0.000412137
0.000419755
0.000428316
0.00042645
0.000457753
0.000445088
0.00043184
0.00038784
0.000382208
0.000481841
0.00083661
0.00103717
0.00105457
0.00103908
0.000401934
0.000432286
0.000424174
0.000380615
0.000388354
0.000502038
0.000824839
0.00102367
0.00105813
0.00104049
0.000218156
0.00031564
0.000318
0.000314276
0.000360059
0.000550039
0.000830247
0.00100384
0.00103376
0.00101676
0.000189062
0.000220049
0.000231201
0.000262914
0.000367032
0.000558635
0.000737176
0.00087396
0.00092346
0.000920117
0.000194419
0.000203822
0.000216368
0.000240597
0.000302756
0.00044982
0.000608964
0.000721521
0.000776254
0.000789132
0.000293969
0.00029786
0.000316872
0.000362836
0.000475949
0.000582109
0.000651058
0.000698752
0.000716156
0.000716625
0.000634303
0.000596815
0.000604152
0.000629985
0.000662044
0.000677647
0.000681056
0.000680366
0.000665933
0.00065005
0.00078546
0.000745039
0.00073468
0.000730018
0.000715541
0.000700072
0.000665166
0.000636703
0.000565807
0.00053969
0.000761398
0.000744125
0.000718768
0.000663093
0.000602374
0.00054387
0.000481298
0.000443724
0.000397566
0.000397338
0.000596843
0.000573213
0.00047281
0.000382958
0.000346575
0.000339591
0.000347659
0.000339587
0.000321763
0.000310774
0.000283603
0.000302534
0.000224212
0.000225376
0.000266312
0.000490028
0.00079596
0.000858271
0.000842309
0.000863883
0.000271704
0.00028982
0.000253607
0.00023588
0.000245154
0.000379322
0.000717652
0.000839533
0.000805139
0.000825108
0.000215003
0.000260986
0.000252455
0.00023415
0.000237767
0.000346511
0.000652949
0.00076794
0.000768039
0.000723059
0.000185276
0.000224535
0.000228135
0.000215233
0.000221299
0.000337413
0.000583699
0.000640744
0.000621924
0.00053917
0.000142843
0.000176286
0.000184117
0.000187441
0.00021402
0.000362008
0.000482463
0.000477078
0.00042241
0.000385039
0.000146209
0.00014711
0.000152407
0.000165419
0.000205459
0.000312265
0.000335256
0.000317232
0.000325272
0.000351715
0.000189508
0.000160839
0.000156805
0.000161602
0.000178148
0.000197125
0.000228093
0.000249839
0.00030396
0.000344421
0.000302205
0.000239
0.000196382
0.000182937
0.000186237
0.000194599
0.000206137
0.00023598
0.000300472
0.000329826
0.000370616
0.000336435
0.000298376
0.000272422
0.000248326
0.000242025
0.000245582
0.000258232
0.000294668
0.000319475
0.000376516
0.000368543
0.000353923
0.000337165
0.000322787
0.000304897
0.000298146
0.000300013
0.000308369
0.000315501
0.000111202
8.50667e-05
8.5411e-05
0.000109052
0.000145805
0.000188808
0.000212355
0.000213488
0.000276911
0.000317026
0.000114454
9.79478e-05
8.36766e-05
0.000103917
0.000136205
0.000165347
0.000181856
0.000159672
0.000145543
0.000194874
0.000109348
9.6668e-05
8.63094e-05
0.000103462
0.000132572
0.000150457
0.000152793
0.00012793
0.000112749
0.000127446
9.63562e-05
8.66305e-05
9.06801e-05
0.000102283
0.000119348
0.000122512
0.000101807
9.17552e-05
9.56689e-05
0.000109115
9.10671e-05
8.74125e-05
9.29417e-05
9.92021e-05
0.000100923
9.26833e-05
8.45785e-05
8.28597e-05
9.91988e-05
0.000113904
0.000108507
0.000105206
0.000100742
0.000100872
9.82048e-05
8.8118e-05
8.54877e-05
9.31667e-05
0.000121084
0.000143335
0.000138193
0.000126137
0.000120417
0.000117974
0.000111644
9.95177e-05
9.55567e-05
0.00010867
0.000137625
0.000175776
0.000190896
0.000160399
0.000140596
0.000132766
0.000133754
0.00012172
0.000108418
0.000125652
0.000155335
0.000189815
0.000237968
0.000218244
0.000188752
0.00016033
0.000146503
0.00014225
0.000124288
0.000141953
0.000160911
0.000185562
0.00026989
0.000250631
0.000237204
0.000210536
0.000174099
0.000152864
0.000142879
0.000149611
0.000161364
0.000174553
0.000114208
7.68418e-05
6.44373e-05
5.25692e-05
5.35102e-05
5.73435e-05
5.47213e-05
4.87652e-05
4.91816e-05
5.30239e-05
0.000107764
7.84072e-05
5.76987e-05
4.97652e-05
5.21883e-05
5.63341e-05
5.50268e-05
4.85167e-05
4.81018e-05
5.17183e-05
9.21384e-05
8.02704e-05
5.76763e-05
5.20697e-05
5.42069e-05
5.68681e-05
5.54256e-05
4.96091e-05
4.91536e-05
5.27786e-05
7.82676e-05
7.25198e-05
5.83138e-05
5.62847e-05
5.78297e-05
5.84149e-05
5.56532e-05
5.05297e-05
5.14818e-05
5.58879e-05
8.49314e-05
7.45167e-05
6.56586e-05
6.527e-05
6.5236e-05
6.31956e-05
5.68881e-05
5.34882e-05
5.48368e-05
5.9666e-05
0.000144023
0.000109924
9.23609e-05
8.49787e-05
7.81898e-05
7.19948e-05
6.31799e-05
5.82476e-05
5.91348e-05
6.52954e-05
0.000192448
0.000172031
0.000147912
0.000128625
0.000111428
9.62246e-05
7.86184e-05
6.57339e-05
6.45981e-05
7.16937e-05
0.000209961
0.000200286
0.000187357
0.000164786
0.000142856
0.000126531
0.000103161
7.85568e-05
7.1025e-05
7.77713e-05
0.000244392
0.000231198
0.000219256
0.000209039
0.000186931
0.000166618
0.000143701
0.000102887
7.91205e-05
8.2371e-05
0.000243477
0.000230114
0.000215885
0.000208332
0.000194757
0.000178324
0.000164755
0.00013435
9.51369e-05
8.64433e-05
0.000112036
9.73245e-05
7.46236e-05
5.2913e-05
4.20324e-05
3.92919e-05
3.8273e-05
3.84503e-05
3.95515e-05
4.19447e-05
8.5345e-05
6.85042e-05
5.00241e-05
4.13889e-05
3.83084e-05
3.74652e-05
3.71358e-05
3.78372e-05
3.94169e-05
4.27899e-05
6.23766e-05
5.12503e-05
4.28677e-05
3.92526e-05
3.82923e-05
3.84998e-05
3.89473e-05
4.12514e-05
4.35274e-05
4.7041e-05
6.03894e-05
5.08821e-05
4.54903e-05
4.43828e-05
4.40571e-05
4.40661e-05
4.46715e-05
4.72909e-05
4.88188e-05
5.19651e-05
9.36935e-05
7.44861e-05
6.36687e-05
5.87698e-05
5.61182e-05
5.39334e-05
5.41477e-05
5.54817e-05
5.60176e-05
5.77506e-05
0.000144672
0.000119233
9.94222e-05
8.69938e-05
7.9669e-05
7.32964e-05
7.03827e-05
6.81812e-05
6.46156e-05
6.47298e-05
0.000185168
0.000159905
0.000137358
0.000117413
0.000104921
9.29854e-05
8.62479e-05
8.12917e-05
7.36131e-05
7.25197e-05
0.000203624
0.000179188
0.000157283
0.00013684
0.000118377
0.0001007
9.16359e-05
8.64488e-05
7.95069e-05
7.94606e-05
0.000194798
0.000173047
0.000152488
0.000132871
0.000115203
9.86159e-05
9.1203e-05
8.77196e-05
8.32112e-05
8.7016e-05
0.000162192
0.000146673
0.000132783
0.000119506
0.000106672
9.65433e-05
9.25802e-05
8.96514e-05
8.63436e-05
9.39073e-05
0.000108742
8.83275e-05
6.70913e-05
5.33943e-05
4.67682e-05
4.1836e-05
3.7971e-05
3.66287e-05
3.7157e-05
3.88643e-05
6.69103e-05
5.69541e-05
4.69664e-05
4.10263e-05
3.77012e-05
3.54611e-05
3.30605e-05
3.30065e-05
3.40784e-05
3.78557e-05
5.55583e-05
4.672e-05
4.10436e-05
3.78929e-05
3.58518e-05
3.45782e-05
3.21778e-05
3.20425e-05
3.34317e-05
3.89052e-05
5.56431e-05
4.78631e-05
4.33055e-05
4.17417e-05
4.08059e-05
3.90491e-05
3.44786e-05
3.27858e-05
3.46029e-05
4.23145e-05
6.75784e-05
5.88556e-05
5.35588e-05
4.9825e-05
4.72974e-05
4.36321e-05
3.78744e-05
3.49701e-05
3.66586e-05
4.62908e-05
8.49872e-05
7.48034e-05
6.54582e-05
5.85006e-05
5.37068e-05
4.91266e-05
4.31934e-05
3.83076e-05
3.87666e-05
4.80644e-05
0.000101518
8.68979e-05
7.6498e-05
6.86405e-05
6.14203e-05
5.53743e-05
4.92352e-05
4.285e-05
4.22616e-05
4.87066e-05
0.000107895
9.23717e-05
8.43306e-05
7.72824e-05
6.95641e-05
6.32707e-05
5.71042e-05
4.95119e-05
4.81575e-05
5.32334e-05
0.000106881
9.79946e-05
9.33439e-05
8.58708e-05
7.86001e-05
7.37268e-05
6.77424e-05
5.87177e-05
5.78684e-05
6.86758e-05
0.00010836
0.000110145
0.000103044
9.62399e-05
9.31347e-05
9.12532e-05
8.59313e-05
7.14327e-05
6.84754e-05
7.5055e-05
0.00012898
0.000118245
9.83182e-05
8.65377e-05
7.40518e-05
6.22141e-05
5.11044e-05
4.45058e-05
4.37505e-05
4.77178e-05
7.60671e-05
7.50839e-05
6.78352e-05
5.9113e-05
4.92202e-05
4.03242e-05
3.53455e-05
3.47682e-05
3.70782e-05
4.84092e-05
6.0041e-05
5.18149e-05
4.5314e-05
3.942e-05
3.4302e-05
3.08204e-05
3.0193e-05
3.09053e-05
3.50447e-05
5.18133e-05
5.83448e-05
4.82781e-05
4.02853e-05
3.50644e-05
3.13011e-05
2.91214e-05
2.90316e-05
2.99148e-05
3.45325e-05
5.45954e-05
6.53929e-05
5.45753e-05
4.4707e-05
3.83923e-05
3.413e-05
3.1487e-05
3.07181e-05
3.11583e-05
3.4893e-05
5.22108e-05
7.82531e-05
6.78025e-05
5.62502e-05
4.83377e-05
4.27272e-05
3.88454e-05
3.5945e-05
3.47062e-05
3.62761e-05
4.73826e-05
9.44533e-05
8.29429e-05
6.94403e-05
6.0395e-05
5.37534e-05
4.87963e-05
4.50322e-05
3.98324e-05
3.95016e-05
4.50378e-05
0.000112605
9.72873e-05
8.26331e-05
7.3753e-05
6.73377e-05
6.21331e-05
5.82681e-05
4.95811e-05
4.49022e-05
4.70158e-05
0.000129188
0.000107205
9.54538e-05
8.86225e-05
8.3923e-05
8.06082e-05
7.65346e-05
6.70132e-05
5.47223e-05
5.26858e-05
0.000139085
0.000117002
0.000109714
0.000106119
0.000104459
0.000105613
0.000103459
9.49029e-05
7.33923e-05
6.31677e-05
0.000169015
0.000138847
0.000118622
0.000103504
8.10997e-05
6.00389e-05
5.12962e-05
5.1432e-05
5.95118e-05
9.23335e-05
0.000114191
9.58233e-05
8.21563e-05
6.88843e-05
5.34635e-05
4.41772e-05
4.22542e-05
4.44313e-05
5.94509e-05
0.000105477
9.29504e-05
7.82075e-05
6.38876e-05
5.11254e-05
4.23523e-05
3.78842e-05
3.78674e-05
4.06609e-05
5.60821e-05
9.91014e-05
7.77536e-05
6.18783e-05
5.07769e-05
4.36458e-05
3.8533e-05
3.5913e-05
3.62552e-05
3.90344e-05
5.02487e-05
8.27888e-05
7.21889e-05
5.81339e-05
4.94846e-05
4.37643e-05
3.99695e-05
3.76501e-05
3.76603e-05
3.92034e-05
4.62733e-05
6.88895e-05
7.8919e-05
6.6833e-05
5.90036e-05
5.35603e-05
4.98746e-05
4.6657e-05
4.47296e-05
4.44122e-05
4.71291e-05
6.11456e-05
9.6041e-05
8.34503e-05
7.48433e-05
6.88807e-05
6.47298e-05
6.14342e-05
5.8344e-05
5.30083e-05
5.27955e-05
6.10027e-05
0.000118959
0.00010255
9.37684e-05
8.84058e-05
8.51492e-05
8.31916e-05
7.92507e-05
7.02488e-05
6.18595e-05
6.52084e-05
0.000144172
0.000123906
0.000116256
0.000112255
0.000111613
0.000112734
0.00011009
0.00010029
7.83687e-05
7.56789e-05
0.000167932
0.000146709
0.000140651
0.000139361
0.000145101
0.000154593
0.000154731
0.000142919
0.000107809
9.41334e-05
0.00025591
0.000202403
0.00017432
0.000139404
0.000106395
9.17024e-05
9.0841e-05
9.64857e-05
0.000122325
0.000189813
0.000175454
0.000145302
0.000119371
9.51072e-05
7.92349e-05
7.3596e-05
7.54525e-05
8.71033e-05
0.000127382
0.00020906
0.000168627
0.000127775
9.62617e-05
7.77401e-05
6.73693e-05
6.50504e-05
6.856e-05
8.22099e-05
0.000124119
0.000199354
0.000158667
0.000111351
8.64904e-05
7.22428e-05
6.40411e-05
6.26645e-05
6.65635e-05
7.97778e-05
0.000117856
0.000182296
0.000139739
0.000105159
8.52356e-05
7.32025e-05
6.70449e-05
6.61018e-05
6.89272e-05
7.91538e-05
0.000111133
0.000171169
0.000134977
0.000110467
9.62646e-05
8.67484e-05
8.16418e-05
7.96946e-05
8.00732e-05
8.37797e-05
0.000106845
0.000164114
0.000150627
0.000133828
0.000118984
0.000109876
0.000105777
0.000103782
0.000101413
9.71518e-05
0.000108897
0.000159914
0.000184345
0.000164849
0.00015014
0.000144495
0.00014298
0.000142391
0.000138348
0.000123746
0.000121995
0.000157482
0.000230709
0.000204235
0.000192988
0.000190591
0.000192555
0.000196584
0.000194741
0.000176981
0.00014953
0.00016788
0.000285553
0.000252006
0.000244043
0.000244194
0.000252345
0.000266969
0.000277436
0.000266706
0.000222178
0.000215206
0.000335622
0.000265496
0.000214238
0.000173978
0.000154334
0.000152105
0.000161625
0.000190099
0.000244621
0.000335838
0.000270107
0.000218176
0.000170592
0.000142864
0.000130381
0.000131218
0.000146703
0.000183743
0.000249437
0.000351159
0.000269246
0.000195592
0.000150135
0.000128642
0.000119793
0.000122147
0.000139879
0.000178027
0.000244496
0.000337235
0.000250425
0.000177829
0.000143248
0.000124536
0.000117004
0.000119773
0.00013716
0.000173283
0.000235569
0.000314027
0.000232804
0.000173182
0.000144773
0.000128395
0.000121717
0.000123319
0.000137296
0.000169619
0.000226515
0.000301497
0.000229095
0.000186213
0.000165966
0.000148037
0.00013843
0.000136688
0.000144277
0.000168737
0.000222438
0.000297975
0.000250132
0.00022253
0.000199987
0.000178983
0.000166884
0.000163751
0.000165988
0.000177717
0.000222263
0.000300682
0.000296346
0.000272993
0.000246028
0.000224863
0.000213981
0.000211693
0.000214096
0.000215735
0.000235041
0.000302477
0.000368753
0.00033883
0.000307012
0.00028723
0.000280416
0.000283272
0.000295245
0.000302795
0.000303239
0.000335309
0.000473654
0.000420213
0.000384019
0.000367283
0.000362681
0.000373941
0.00040151
0.000431904
0.000450993
0.000466051
0.000344061
0.00027554
0.000217499
0.000188271
0.000178686
0.000183971
0.000205789
0.000245866
0.000306631
0.000394537
0.000303546
0.000235159
0.000183594
0.000161525
0.000155471
0.000162112
0.000186174
0.000227738
0.000288511
0.000376971
0.0002901
0.000206005
0.000165521
0.000148628
0.000144123
0.000150744
0.000174448
0.000215886
0.000275603
0.000358971
0.000265107
0.000192971
0.000159971
0.00014454
0.000140147
0.000145848
0.000168146
0.000208116
0.000266119
0.000339165
0.000253872
0.000191208
0.000163681
0.00014745
0.0001412
0.000144862
0.000165567
0.000203196
0.000258494
0.000330179
0.000256706
0.00020956
0.000189366
0.000166284
0.000153983
0.000152577
0.00016795
0.000202225
0.00025686
0.000331425
0.000283588
0.000248797
0.000227619
0.000197841
0.000178401
0.000174374
0.000183828
0.000210853
0.000259958
0.000337646
0.000330565
0.000304983
0.000277112
0.000241658
0.000221972
0.000218302
0.000229253
0.000250577
0.000283279
0.000348293
0.000405085
0.00037909
0.000337618
0.000301055
0.000287744
0.000289357
0.000311913
0.000342984
0.000370025
0.000406141
0.000523141
0.00047264
0.000414192
0.000382529
0.000371957
0.000381078
0.00041576
0.000468004
0.000518902
0.000546668
0.000139089
0.000125689
0.000111995
0.000105728
0.000104744
0.000105785
0.000108118
0.000115825
0.000131078
0.000151392
0.000130559
0.000109628
9.86389e-05
9.51047e-05
9.56119e-05
9.73946e-05
9.9635e-05
0.000108565
0.000121907
0.000139558
0.00012563
0.000101763
9.33929e-05
9.02762e-05
8.96425e-05
9.11333e-05
9.6161e-05
0.000105804
0.000118272
0.00013275
0.000118302
9.89944e-05
9.17147e-05
8.85793e-05
8.76287e-05
8.91723e-05
9.54395e-05
0.000105083
0.000115881
0.000126051
0.000115648
9.89374e-05
9.35223e-05
8.97405e-05
8.80036e-05
8.92715e-05
9.56891e-05
0.000103643
0.000112474
0.00012276
0.000117021
0.000105508
0.000103512
9.73708e-05
9.13982e-05
9.08915e-05
9.58682e-05
0.000103089
0.000112347
0.000123883
0.000126105
0.000116298
0.000118621
0.000110995
9.73145e-05
9.45319e-05
9.70114e-05
0.000104389
0.00011422
0.00012859
0.000144203
0.000128759
0.00013693
0.000125027
0.000106518
0.000100942
0.000102649
0.000110578
0.000120139
0.000135204
0.000167762
0.000150773
0.000157173
0.000135656
0.000117935
0.000113597
0.000117055
0.000126346
0.000134071
0.000145407
0.000192884
0.000186991
0.000165612
0.000145152
0.000132571
0.000128761
0.000129703
0.00013526
0.000143991
0.000153917
4.8862e-05
4.86683e-05
4.89785e-05
4.87047e-05
4.5546e-05
4.21768e-05
4.16824e-05
4.40257e-05
4.54525e-05
4.68569e-05
4.6077e-05
4.33314e-05
4.21303e-05
4.26105e-05
4.13709e-05
3.92857e-05
3.96764e-05
4.21056e-05
4.39226e-05
4.56192e-05
4.43967e-05
4.03376e-05
3.91001e-05
3.8729e-05
3.77454e-05
3.70881e-05
3.82678e-05
4.08059e-05
4.26029e-05
4.3357e-05
4.26761e-05
3.8723e-05
3.70242e-05
3.59145e-05
3.52124e-05
3.509e-05
3.60465e-05
3.81143e-05
3.98058e-05
4.0297e-05
4.1855e-05
3.81758e-05
3.65084e-05
3.53235e-05
3.47278e-05
3.45296e-05
3.47609e-05
3.55247e-05
3.67395e-05
3.82166e-05
4.1867e-05
3.8912e-05
3.77648e-05
3.63315e-05
3.5531e-05
3.53052e-05
3.5334e-05
3.57649e-05
3.70343e-05
3.88008e-05
4.36804e-05
4.16511e-05
4.16366e-05
3.96412e-05
3.7359e-05
3.69411e-05
3.71718e-05
3.80441e-05
3.95613e-05
4.13054e-05
4.73774e-05
4.44767e-05
4.64071e-05
4.42988e-05
4.01709e-05
3.83666e-05
3.88871e-05
4.0294e-05
4.21338e-05
4.34014e-05
5.37504e-05
4.85931e-05
4.96529e-05
4.63502e-05
4.28554e-05
4.00255e-05
4.06924e-05
4.26258e-05
4.35811e-05
4.43811e-05
5.92244e-05
5.63455e-05
5.06427e-05
4.70354e-05
4.41982e-05
4.17687e-05
4.24833e-05
4.37361e-05
4.44036e-05
4.55082e-05
2.29652e-05
2.35104e-05
2.43761e-05
2.45294e-05
2.04962e-05
1.94069e-05
1.9987e-05
2.04671e-05
2.06216e-05
2.10615e-05
2.28209e-05
2.23905e-05
2.23836e-05
2.28866e-05
1.95109e-05
1.84945e-05
1.90615e-05
1.96377e-05
1.99993e-05
2.07645e-05
2.30897e-05
2.2016e-05
2.15991e-05
2.07035e-05
1.80939e-05
1.76905e-05
1.84362e-05
1.92119e-05
1.97463e-05
2.03064e-05
2.18508e-05
2.06352e-05
2.00461e-05
1.85437e-05
1.71276e-05
1.69201e-05
1.75817e-05
1.87093e-05
1.93857e-05
2.00015e-05
2.03097e-05
1.91643e-05
1.84572e-05
1.73831e-05
1.67966e-05
1.66545e-05
1.6795e-05
1.74445e-05
1.82182e-05
1.88845e-05
1.97824e-05
1.85245e-05
1.7823e-05
1.72846e-05
1.70373e-05
1.695e-05
1.70064e-05
1.73647e-05
1.78808e-05
1.83929e-05
2.00432e-05
1.90406e-05
1.85622e-05
1.81451e-05
1.80178e-05
1.80141e-05
1.82551e-05
1.8723e-05
1.92872e-05
1.97997e-05
2.13646e-05
2.09984e-05
2.08689e-05
1.96551e-05
1.9124e-05
1.90922e-05
1.94205e-05
1.963e-05
1.98829e-05
2.03268e-05
2.3206e-05
2.36893e-05
2.32881e-05
2.191e-05
2.02209e-05
1.97527e-05
1.99489e-05
1.99968e-05
2.01256e-05
2.04975e-05
2.64484e-05
2.62782e-05
2.40064e-05
2.26283e-05
2.19978e-05
2.02787e-05
2.0579e-05
2.08136e-05
2.09198e-05
2.10778e-05
1.37814e-05
1.35829e-05
1.3696e-05
1.42114e-05
1.29743e-05
1.18117e-05
1.2308e-05
1.28571e-05
1.30266e-05
1.32747e-05
1.38166e-05
1.34707e-05
1.35311e-05
1.37677e-05
1.20721e-05
1.12624e-05
1.16605e-05
1.22682e-05
1.25178e-05
1.30603e-05
1.38712e-05
1.34111e-05
1.32785e-05
1.32048e-05
1.13966e-05
1.07793e-05
1.10866e-05
1.19061e-05
1.22997e-05
1.28424e-05
1.39617e-05
1.34253e-05
1.31272e-05
1.25996e-05
1.09451e-05
1.04017e-05
1.04916e-05
1.11609e-05
1.18892e-05
1.25052e-05
1.40293e-05
1.33179e-05
1.27957e-05
1.19082e-05
1.07014e-05
1.03466e-05
1.03253e-05
1.05947e-05
1.10736e-05
1.16636e-05
1.34551e-05
1.26775e-05
1.19657e-05
1.11565e-05
1.05936e-05
1.04087e-05
1.03907e-05
1.06328e-05
1.09583e-05
1.14019e-05
1.25991e-05
1.20065e-05
1.15233e-05
1.10637e-05
1.08041e-05
1.07286e-05
1.07651e-05
1.09708e-05
1.13267e-05
1.18246e-05
1.29427e-05
1.26912e-05
1.22103e-05
1.18447e-05
1.1619e-05
1.13867e-05
1.13184e-05
1.1607e-05
1.2074e-05
1.25782e-05
1.4524e-05
1.47017e-05
1.39853e-05
1.32145e-05
1.24177e-05
1.19302e-05
1.18493e-05
1.22045e-05
1.24523e-05
1.28126e-05
1.69259e-05
1.60131e-05
1.49025e-05
1.4314e-05
1.37661e-05
1.25303e-05
1.24288e-05
1.28259e-05
1.29921e-05
1.31085e-05
1.02711e-05
9.99296e-06
9.68793e-06
9.51741e-06
9.04398e-06
8.62808e-06
9.01062e-06
9.55211e-06
9.76798e-06
9.965e-06
1.01792e-05
9.78657e-06
9.48087e-06
9.31824e-06
8.75267e-06
8.33742e-06
8.55975e-06
9.13529e-06
9.412e-06
9.76229e-06
1.01506e-05
9.69732e-06
9.25782e-06
9.12828e-06
8.4986e-06
8.08158e-06
8.15788e-06
8.6505e-06
9.09683e-06
9.50327e-06
1.00353e-05
9.50112e-06
9.19501e-06
9.03801e-06
8.33563e-06
7.92481e-06
7.89472e-06
8.11454e-06
8.47781e-06
8.88632e-06
9.97587e-06
9.52346e-06
9.27796e-06
8.95436e-06
8.25934e-06
7.96471e-06
7.92165e-06
7.98927e-06
8.17871e-06
8.43868e-06
1.01074e-05
9.66719e-06
9.25737e-06
8.73798e-06
8.20875e-06
8.03286e-06
7.99309e-06
8.06334e-06
8.21148e-06
8.43043e-06
9.9833e-06
9.45504e-06
8.98873e-06
8.51532e-06
8.27271e-06
8.18559e-06
8.1602e-06
8.18403e-06
8.3841e-06
8.72065e-06
9.73029e-06
9.4282e-06
9.0274e-06
8.82402e-06
8.74608e-06
8.61237e-06
8.46348e-06
8.48952e-06
8.90809e-06
9.33266e-06
1.05176e-05
1.02927e-05
9.88125e-06
9.69904e-06
9.52146e-06
8.99711e-06
8.75633e-06
8.92636e-06
9.34757e-06
9.59532e-06
1.21688e-05
1.15784e-05
1.10858e-05
1.06192e-05
1.03089e-05
9.66407e-06
9.09142e-06
9.38596e-06
9.70151e-06
9.83035e-06
8.73966e-06
8.5046e-06
8.24299e-06
7.9521e-06
7.61259e-06
7.46407e-06
7.69954e-06
8.0448e-06
8.24587e-06
8.43918e-06
8.69225e-06
8.37728e-06
8.08598e-06
7.75787e-06
7.46552e-06
7.30919e-06
7.42423e-06
7.68387e-06
7.90969e-06
8.2261e-06
8.6265e-06
8.25841e-06
7.88193e-06
7.59918e-06
7.32647e-06
7.1732e-06
7.19978e-06
7.41053e-06
7.63731e-06
7.96983e-06
8.47758e-06
8.07218e-06
7.74337e-06
7.51525e-06
7.23014e-06
7.08015e-06
7.05951e-06
7.15549e-06
7.32068e-06
7.53975e-06
8.41129e-06
8.04446e-06
7.75591e-06
7.51178e-06
7.21795e-06
7.1007e-06
7.07382e-06
7.10208e-06
7.19314e-06
7.31638e-06
8.53606e-06
8.16138e-06
7.82958e-06
7.48847e-06
7.2422e-06
7.16209e-06
7.14098e-06
7.16726e-06
7.25364e-06
7.40014e-06
8.52179e-06
8.16573e-06
7.7713e-06
7.48038e-06
7.35526e-06
7.33549e-06
7.28862e-06
7.27954e-06
7.42774e-06
7.66912e-06
8.30606e-06
8.11809e-06
7.81175e-06
7.69077e-06
7.72466e-06
7.68756e-06
7.49624e-06
7.47087e-06
7.67978e-06
7.94674e-06
9.1509e-06
8.62266e-06
8.2679e-06
8.22063e-06
8.2366e-06
8.04403e-06
7.71892e-06
7.69583e-06
7.93491e-06
8.1603e-06
9.69171e-06
9.30913e-06
8.98588e-06
8.73375e-06
8.5779e-06
8.3844e-06
7.96938e-06
7.97728e-06
8.24748e-06
8.37642e-06
8.40823e-06
8.1935e-06
8.08605e-06
7.84812e-06
7.4901e-06
7.32469e-06
7.52732e-06
7.81038e-06
7.90995e-06
8.01131e-06
8.44997e-06
8.10428e-06
7.90167e-06
7.65811e-06
7.35781e-06
7.1987e-06
7.30379e-06
7.49988e-06
7.63633e-06
7.89787e-06
8.43818e-06
8.04937e-06
7.77721e-06
7.51138e-06
7.22837e-06
7.09063e-06
7.12984e-06
7.29276e-06
7.47067e-06
7.76771e-06
8.3218e-06
7.97889e-06
7.67123e-06
7.38295e-06
7.12156e-06
7.01324e-06
7.00156e-06
7.08651e-06
7.22378e-06
7.42665e-06
8.27226e-06
7.92305e-06
7.59048e-06
7.30371e-06
7.09336e-06
7.00619e-06
6.98253e-06
7.00778e-06
7.08461e-06
7.19014e-06
8.24561e-06
7.90345e-06
7.56566e-06
7.29294e-06
7.13211e-06
7.077e-06
7.05933e-06
7.08508e-06
7.1707e-06
7.28581e-06
8.22591e-06
7.90054e-06
7.59025e-06
7.35183e-06
7.26666e-06
7.24194e-06
7.2146e-06
7.25206e-06
7.38826e-06
7.58071e-06
8.42155e-06
8.0183e-06
7.71276e-06
7.56998e-06
7.5544e-06
7.497e-06
7.40469e-06
7.43924e-06
7.57834e-06
7.78412e-06
9.10316e-06
8.66148e-06
8.26885e-06
8.05782e-06
7.95366e-06
7.81349e-06
7.59793e-06
7.64199e-06
7.74509e-06
7.87337e-06
9.23001e-06
8.95237e-06
8.72207e-06
8.4991e-06
8.28045e-06
8.07276e-06
7.80139e-06
7.92468e-06
8.03125e-06
8.04393e-06
0.0467351
0.0479075
0.0476621
0.047755
0.0495347
0.0495333
0.0477517
0.0476586
0.0479014
0.0467265
0.0479059
0.0497031
0.0502977
0.05057
0.0509456
0.0509461
0.0505684
0.0502919
0.0497037
0.0479123
0.0476593
0.0502973
0.0510649
0.051337
0.0514641
0.0514599
0.0513372
0.0510793
0.0503088
0.0476676
0.0477523
0.0505697
0.0513374
0.0515993
0.0517004
0.0517174
0.0516164
0.0513554
0.0505846
0.0477611
0.0495341
0.0509467
0.0514605
0.0517159
0.0518218
0.0518236
0.0517216
0.051483
0.0509622
0.0495457
0.0495302
0.0509547
0.051482
0.0517219
0.0518238
0.0518236
0.0517216
0.0514829
0.0509637
0.0495568
0.0477613
0.0505857
0.0513555
0.0516199
0.0517216
0.0517225
0.0516222
0.0513702
0.050617
0.0478404
0.0476666
0.0503109
0.0510819
0.0513571
0.0514852
0.0515047
0.0513859
0.0511864
0.050395
0.0477311
0.0479108
0.0497138
0.0503118
0.0506082
0.0509903
0.0510657
0.0506795
0.0503891
0.0497869
0.0479738
0.0467349
0.0479289
0.0476878
0.047834
0.0496417
0.049621
0.0478256
0.0477317
0.0479737
0.046794
0.0508155
0.0513108
0.0513423
0.0514075
0.0518256
0.0518252
0.0514065
0.0513414
0.0513088
0.0508118
0.0513105
0.0518965
0.0521307
0.0522497
0.0523563
0.0523565
0.0522491
0.0521284
0.0518969
0.0513146
0.0513417
0.0521308
0.0524243
0.0525566
0.052617
0.0526152
0.0525567
0.0524317
0.0521368