/*--------------------------------*- C++ -*----------------------------------*\
  =========                 |
  \\      /  F ield         | OpenFOAM: The Open Source CFD Toolbox
   \\    /   O peration     | Website:  https://openfoam.org
    \\  /    A nd           | Version:  9
     \\/     M anipulation  |
\*---------------------------------------------------------------------------*/
FoamFile
{
    format      ascii;
    class       volScalarField;
    location    "1";
    object      f17.gas;
}
// * * * * * * * * * * * * * * * * * * * * * * * * * * * * * * * * * * * * * //

dimensions      [0 0 0 0 0 0 0];

internalField   nonuniform List<scalar> 
137980
(
0.00448845
0.0048563
0.00430532
0.00415007
0.00414635
0.00417197
0.00441192
0.00463893
0.00482742
0.00483926
0.0046697
0.00507765
0.0046738
0.00437226
0.00440541
0.00420217
0.00430753
0.00463186
0.00501015
0.00513525
0.0043653
0.00440707
0.00505467
0.00507029
0.00515684
0.00510749
0.00491814
0.00498368
0.00501
0.00494287
0.00436914
0.00416508
0.00441613
0.00478391
0.00490091
0.00532698
0.0050866
0.00473236
0.00415583
0.00399877
0.00406826
0.00394377
0.00413676
0.00438679
0.00453094
0.00490613
0.00508035
0.00498243
0.00415609
0.00384604
0.00391259
0.00390027
0.00395181
0.00418376
0.00442449
0.0046078
0.00491635
0.00498777
0.00413506
0.00401658
0.0038543
0.00399149
0.00428419
0.00435775
0.0044368
0.0046762
0.00500401
0.00492283
0.00411767
0.00427322
0.00400095
0.00437427
0.0044366
0.00433539
0.00439889
0.00459167
0.00558179
0.00540074
0.00415555
0.00414393
0.0040328
0.00431931
0.00426935
0.00407917
0.00404622
0.00420266
0.00430889
0.00566535
0.00492076
0.0040773
0.00415696
0.00431714
0.00415293
0.00397605
0.00394623
0.00411847
0.00389724
0.00423543
0.00483007
0.00418334
0.00306059
0.0036478
0.00360511
0.00345991
0.00343623
0.00341477
0.00342066
0.00346706
0.00341217
0.00317363
0.00363912
0.00373212
0.00383601
0.0037655
0.00363337
0.00363396
0.00373514
0.00374865
0.00355771
0.00339352
0.00345735
0.00355211
0.00386697
0.00397914
0.00383813
0.00384649
0.00392535
0.0039456
0.0038729
0.00379091
0.00343408
0.00349172
0.0036503
0.00383686
0.00371255
0.00381083
0.0038235
0.00380289
0.00370155
0.00352427
0.00332886
0.00340168
0.00360179
0.00370749
0.0035877
0.00363604
0.00364943
0.00355579
0.00339984
0.00325342
0.0032386
0.00333691
0.00352073
0.00365099
0.00361525
0.00349688
0.00347103
0.00345397
0.00329601
0.00319377
0.00328193
0.0034576
0.00368345
0.00365658
0.00367227
0.00361294
0.00349008
0.00341782
0.00325673
0.00324465
0.00353426
0.00363855
0.0036588
0.00365228
0.00371851
0.00362954
0.00369149
0.00365805
0.0034348
0.00327578
0.00353772
0.00358047
0.00353092
0.00350669
0.00361195
0.0036401
0.00338893
0.00355062
0.00353395
0.00335475
0.00330442
0.00325165
0.00320962
0.00328088
0.00344242
0.00357071
0.00333317
0.00340635
0.00340335
0.00328942
0.00266032
0.00268844
0.00282023
0.0028444
0.00280241
0.00275232
0.00273819
0.00274652
0.00279269
0.00280658
0.00276514
0.00294343
0.00297069
0.00296973
0.00293873
0.00288729
0.00287572
0.00286968
0.00286598
0.0028702
0.0030018
0.00301627
0.00301305
0.00300158
0.00296092
0.00290838
0.00289209
0.00287415
0.00286914
0.00286455
0.00300923
0.00302919
0.00301996
0.00300093
0.00292485
0.00289804
0.0028627
0.00284627
0.00287115
0.0028566
0.00308092
0.00301939
0.00295949
0.00294779
0.00293886
0.00289843
0.002863
0.0028589
0.00289251
0.00288372
0.00295349
0.00298136
0.00300667
0.00301061
0.0029716
0.00292068
0.00290609
0.00292376
0.00296154
0.00293711
0.00296585
0.00304416
0.00307581
0.0030207
0.00294448
0.00293402
0.00296376
0.00299707
0.00298755
0.00297854
0.00305872
0.00314089
0.00306963
0.00291134
0.00291021
0.00294726
0.00300809
0.00300398
0.00294922
0.00294902
0.00310328
0.00304156
0.00280605
0.00286576
0.00289238
0.00299318
0.00298979
0.00294991
0.0027841
0.00280047
0.00281238
0.00267342
0.00272947
0.00277282
0.00282113
0.00297154
0.00292281
0.00273493
0.00255955
0.00255071
0.00243827
0.00245731
0.00249951
0.00259087
0.00265268
0.00265432
0.00266319
0.00277268
0.00281318
0.00279381
0.00249731
0.00249861
0.0025199
0.00256431
0.00256847
0.00266579
0.00278298
0.00285592
0.00284616
0.00282672
0.00250185
0.00248709
0.00249255
0.00252384
0.00280449
0.00290577
0.00290686
0.00289004
0.00285456
0.00283005
0.002529
0.00251678
0.00257948
0.00289959
0.00295251
0.00294398
0.00291774
0.00286089
0.00281442
0.00281054
0.00272877
0.00276814
0.0029074
0.00298094
0.00297004
0.0029333
0.00284635
0.00276909
0.0027533
0.00275885
0.00287056
0.00291875
0.00302181
0.00300693
0.00295289
0.00282652
0.00274166
0.00273015
0.00273809
0.00274685
0.00303427
0.00310334
0.00308573
0.00298798
0.00278783
0.00271215
0.00270796
0.00272228
0.00273996
0.00271328
0.00319549
0.00317561
0.00301772
0.00272754
0.00268558
0.00268664
0.00270636
0.00276281
0.00272726
0.00254533
0.00321168
0.00302859
0.00264844
0.00265773
0.00268445
0.00271372
0.00279446
0.00279716
0.00261884
0.00249473
0.00300849
0.00245826
0.00261044
0.00270477
0.00274211
0.00277
0.00285101
0.00268861
0.00263128
0.00254634
0.00251424
0.00244715
0.00235545
0.0023683
0.00241993
0.00251709
0.00262707
0.00268799
0.00268679
0.00268177
0.00263679
0.00258604
0.00254895
0.0025779
0.00260737
0.00268166
0.00273491
0.00272029
0.00268583
0.00267559
0.00269268
0.00261133
0.00257822
0.00257251
0.00272768
0.00277795
0.00276513
0.00271834
0.00263565
0.00262931
0.00275948
0.00256157
0.0025934
0.00272189
0.00279526
0.00278879
0.00275233
0.0026516
0.00260115
0.00259815
0.00293373
0.00270743
0.00268741
0.00276582
0.00281518
0.00279505
0.00271675
0.00262341
0.00259784
0.00259571
0.00302467
0.00285196
0.00286725
0.00289449
0.00285938
0.00277941
0.00265015
0.00260861
0.00261228
0.00259728
0.00318687
0.0030956
0.00304725
0.00292979
0.00275497
0.00263183
0.00259517
0.00261095
0.00262008
0.00255219
0.00321013
0.00315828
0.0029561
0.00257581
0.00257267
0.00257076
0.00258291
0.00264778
0.00261559
0.0024505
0.00316382
0.00284972
0.00233208
0.00242526
0.00256351
0.0025884
0.00266886
0.00265537
0.00258205
0.00240516
0.00304593
0.00201013
0.00216412
0.0025123
0.00265261
0.00268234
0.00267834
0.00264504
0.00253037
0.00238467
0.00157579
0.00161538
0.00169194
0.00190421
0.0023121
0.00251679
0.00259573
0.00263508
0.00262587
0.00259175
0.00159288
0.00167583
0.00191291
0.00232333
0.00253092
0.00261439
0.00265349
0.00265495
0.00263426
0.00258377
0.00165778
0.00177408
0.00213408
0.00245116
0.00258719
0.002663
0.00267685
0.00266684
0.00263483
0.00255743
0.00175454
0.00193699
0.00227676
0.00251327
0.00264232
0.00268428
0.0026897
0.00268395
0.00264935
0.00255997
0.00209613
0.00233738
0.00254776
0.00268962
0.00275579
0.00276332
0.00275153
0.00271975
0.00265564
0.00253789
0.00293276
0.00293625
0.00292934
0.00291594
0.00289132
0.00283101
0.00277294
0.00272248
0.00260269
0.00244281
0.00308553
0.0030487
0.00300479
0.00296111
0.00290854
0.00282181
0.00275624
0.00264106
0.00242722
0.00225387
0.00299182
0.00296459
0.00290432
0.00283311
0.00271962
0.00261889
0.00252397
0.00231256
0.00216965
0.0020987
0.00272974
0.00268417
0.0025605
0.00239427
0.00232311
0.00224017
0.00212636
0.00206623
0.0020433
0.00204529
0.00207293
0.00180691
0.00178029
0.00184918
0.00196914
0.00193948
0.0019245
0.00195916
0.00200019
0.00203064
0.00167053
0.00167508
0.00165372
0.00156255
0.00156663
0.00172726
0.00223409
0.00250648
0.00251626
0.00249487
0.00154361
0.00161122
0.00160098
0.00154286
0.0015635
0.00176002
0.0022219
0.00246157
0.00249561
0.0024882
0.00131007
0.00141765
0.00143114
0.00145263
0.00155185
0.00186451
0.00222415
0.00241103
0.00243579
0.00241614
0.00129513
0.00131982
0.0013484
0.00141109
0.00158494
0.00187058
0.00209739
0.00224707
0.00229764
0.00229772
0.00131523
0.00131474
0.00133267
0.00138079
0.00149764
0.00172319
0.00195019
0.00210417
0.00217109
0.00219623
0.00154298
0.00151479
0.00153351
0.00159488
0.00175401
0.0019396
0.00206217
0.00212533
0.00215545
0.00216618
0.00216082
0.00206567
0.00205887
0.0020845
0.00214281
0.00217463
0.00217505
0.00217202
0.00216375
0.00215283
0.00241237
0.00234771
0.00231569
0.00230612
0.00227986
0.00225749
0.00221026
0.00218208
0.00211072
0.00208079
0.00242049
0.00238729
0.00235295
0.00229582
0.00220618
0.0021327
0.00204257
0.00199521
0.00190785
0.00189773
0.00228157
0.00224318
0.00207302
0.0018522
0.00173874
0.00171279
0.00173248
0.00170437
0.00164489
0.00162364
0.00132945
0.00119963
0.0010714
0.00108046
0.0011729
0.0015784
0.00202284
0.00210387
0.00207636
0.00214037
0.00128272
0.00123295
0.00112692
0.00110604
0.00113424
0.00139389
0.0019142
0.00207252
0.00200514
0.0020444
0.00116492
0.00120855
0.00117477
0.00111094
0.00112303
0.00133617
0.00181959
0.00196388
0.0019528
0.00187163
0.00109313
0.00114423
0.00113202
0.00108181
0.00109752
0.00132288
0.0017048
0.00177864
0.00173709
0.00162656
0.000968752
0.000995246
0.00100037
0.00100488
0.00106696
0.00133864
0.00154176
0.00153832
0.00149091
0.00152889
0.00106155
0.000968568
0.000965593
0.000981032
0.00104863
0.00123004
0.00130838
0.00132676
0.00140894
0.00153601
0.00135998
0.00109693
0.00101162
0.0010111
0.00103655
0.00108371
0.00116385
0.00124771
0.00142901
0.0015495
0.00170136
0.00147932
0.00126829
0.00114839
0.00112507
0.00113641
0.00116899
0.00124789
0.00146001
0.00154693
0.00184874
0.00174298
0.00162584
0.00151109
0.00142366
0.00136445
0.00136926
0.00140479
0.00150978
0.00154108
0.0018874
0.00184147
0.00179052
0.00172544
0.00167013
0.00160799
0.00155461
0.00155235
0.0015599
0.00155062
0.000925859
0.000858605
0.000811385
0.000807345
0.000866531
0.000953353
0.00101663
0.00105626
0.00126193
0.00140313
0.00097519
0.000918493
0.000820943
0.000801235
0.000847191
0.000907364
0.000940753
0.000927279
0.00095901
0.00110666
0.000967623
0.000930208
0.000832198
0.000801652
0.000840188
0.000878153
0.000888867
0.000863926
0.000875403
0.000957176
0.000938888
0.000891034
0.000807641
0.000797228
0.000818264
0.000824372
0.000804468
0.000794563
0.000841862
0.000907134
0.00087314
0.000826329
0.000800031
0.000796845
0.000795847
0.00077953
0.000771583
0.000779769
0.000853147
0.000925746
0.000905922
0.000847307
0.000825605
0.00081587
0.000797446
0.000777557
0.000774
0.000815236
0.00092351
0.00102691
0.00108098
0.000968705
0.000923207
0.000890228
0.000861401
0.000826569
0.000816627
0.000872746
0.000997665
0.00113772
0.00138743
0.00121189
0.00106226
0.000987251
0.000952264
0.000897151
0.000866132
0.000936455
0.00107171
0.00119309
0.00153489
0.00143159
0.00129738
0.00115111
0.00105583
0.000983478
0.000906242
0.00100749
0.00111194
0.00122438
0.00162484
0.00155254
0.00147985
0.00135608
0.00119433
0.00105281
0.000976634
0.00105761
0.00111472
0.00117837
0.00105223
0.000853806
0.000778615
0.000698233
0.000683204
0.000688073
0.000667017
0.000643827
0.000654633
0.00069446
0.00102683
0.000871972
0.000747746
0.000678793
0.000679525
0.000684536
0.000665796
0.000634195
0.000643688
0.000682905
0.000964044
0.000891152
0.000762099
0.000707462
0.000691519
0.000684154
0.000656897
0.000630586
0.000639819
0.000678677
0.000870846
0.000840313
0.000762305
0.000726282
0.000700956
0.000681815
0.000648414
0.000632603
0.000646364
0.000688244
0.000886086
0.000831606
0.000778352
0.000748523
0.000715011
0.000686172
0.000653797
0.000647621
0.000662885
0.000708476
0.00116734
0.000981133
0.000876973
0.000814411
0.000766001
0.000726286
0.000681942
0.00066977
0.000682573
0.000740405
0.00140953
0.00129221
0.00115534
0.00102823
0.000926156
0.0008416
0.000750819
0.000705672
0.000711428
0.00078207
0.00150058
0.00143414
0.00134929
0.00123294
0.00111326
0.00100417
0.000869917
0.000765238
0.000750648
0.000821288
0.00161638
0.00154471
0.00148621
0.00141495
0.00129408
0.00119595
0.00104329
0.000857077
0.000786385
0.000840392
0.00161367
0.00154892
0.00147796
0.00142862
0.00133778
0.00125507
0.0011682
0.000982373
0.000843921
0.000847626
0.00106841
0.000990205
0.000853586
0.00070439
0.000617729
0.000586327
0.000579343
0.000581347
0.000594424
0.000622496
0.000939397
0.000834772
0.000693098
0.000613664
0.000578894
0.000564772
0.000563255
0.00056834
0.000584601
0.000623732
0.00079261
0.00070497
0.000631531
0.000590595
0.000571161
0.000563108
0.000563871
0.000573037
0.00059321
0.000635469
0.000769857
0.000691819
0.000638558
0.000614589
0.000600607
0.000589159
0.000590378
0.000601481
0.000619165
0.000659741
0.000948098
0.000822983
0.00075112
0.000709842
0.000681818
0.00065434
0.000646241
0.000648784
0.000658096
0.000685414
0.00120112
0.001046
0.000931305
0.000853653
0.000798648
0.000753164
0.000719278
0.000703368
0.000703677
0.000717322
0.00141318
0.00126562
0.0011221
0.00100629
0.000922846
0.000858145
0.000807745
0.000770198
0.000754522
0.000765174
0.00150468
0.00137328
0.00124469
0.00112705
0.00101172
0.000917027
0.000857025
0.000814533
0.000795434
0.000814156
0.00145657
0.00133909
0.00121952
0.00111069
0.00100626
0.000917932
0.000866982
0.000831497
0.000824002
0.000870234
0.00128205
0.00119278
0.00111314
0.00104195
0.00097306
0.000917743
0.000882065
0.000848134
0.000852713
0.000927541
0.00103573
0.000931626
0.00080457
0.000705537
0.000646433
0.000604428
0.000582141
0.000577211
0.000585667
0.000607821
0.000824512
0.000747867
0.000667359
0.000610008
0.000574808
0.000546792
0.000536112
0.000538692
0.000553565
0.000596208
0.000743743
0.000667351
0.000613361
0.000578482
0.000555064
0.000534572
0.000525351
0.000528526
0.000546356
0.000603841
0.000735541
0.000666303
0.000617142
0.000589182
0.000571941
0.000549965
0.000529405
0.000530269
0.000551384
0.000627014
0.000806838
0.000729729
0.000679058
0.000644916
0.000618269
0.000585631
0.000553531
0.000546601
0.000568085
0.000655775
0.000907389
0.000825784
0.000758736
0.00070425
0.000662824
0.00062412
0.000589888
0.000574378
0.000585822
0.000664873
0.000996502
0.000895478
0.000825701
0.000768004
0.000715395
0.0006721
0.000634297
0.000612281
0.000615788
0.000673103
0.00102613
0.000925501
0.00087524
0.000826599
0.000773886
0.000730939
0.000691714
0.00066443
0.000663695
0.000709819
0.00101433
0.000956835
0.000928304
0.000884101
0.000840716
0.000808447
0.00076836
0.000731678
0.000731401
0.000802227
0.00102003
0.00102895
0.000994415
0.00096002
0.000940544
0.000927719
0.000890708
0.000816594
0.000805917
0.000845791
0.00115243
0.00110434
0.000993244
0.000922677
0.000846536
0.000772243
0.000707201
0.000668675
0.000663137
0.000691312
0.000879331
0.000865074
0.000812101
0.00075276
0.000683504
0.000619148
0.00058334
0.000577849
0.000597489
0.0006889
0.000775033
0.000712753
0.000661793
0.000611727
0.000564351
0.000533208
0.000527204
0.000534027
0.000572605
0.000707731
0.000758048
0.000679059
0.000613946
0.000566924
0.000532057
0.000512403
0.000511667
0.000520578
0.000563867
0.000722453
0.000792603
0.00070858
0.000633815
0.000580597
0.000543156
0.000519808
0.000515918
0.000522371
0.000560789
0.000704444
0.000870028
0.000789701
0.000707277
0.000644859
0.000599551
0.000566268
0.000549666
0.000548154
0.000567513
0.000665733
0.00095631
0.000876793
0.000790636
0.00072585
0.000676153
0.000638197
0.000609374
0.000588222
0.00059182
0.00064463
0.00105323
0.000964677
0.000878018
0.000817957
0.000771637
0.000735242
0.000701651
0.000656861
0.00063842
0.000659966
0.00114873
0.00103947
0.000967243
0.000921976
0.000889208
0.000863956
0.000834339
0.000770208
0.000714107
0.000704896
0.00122157
0.00110769
0.0010641
0.0010416
0.0010304
0.00103183
0.00101275
0.000947825
0.000837397
0.000784422
0.00137179
0.00123354
0.00112502
0.00103748
0.000909402
0.000781599
0.000727637
0.000727049
0.000782066
0.00098847
0.00110658
0.00100158
0.000914331
0.000829639
0.000726459
0.000660031
0.00064661
0.000663809
0.000774819
0.00106141
0.00100477
0.000904827
0.000805659
0.000711361
0.000638159
0.000602013
0.000601584
0.000625601
0.000742304
0.00100877
0.000910371
0.000800477
0.000712901
0.000649166
0.000603182
0.000581341
0.000584025
0.000606561
0.000696098
0.000912036
0.000874976
0.000770079
0.00069724
0.000644349
0.000606343
0.000585761
0.000586436
0.000602308
0.000663184
0.000827927
0.000910926
0.000817257
0.000750934
0.000701599
0.000666875
0.000639552
0.00062874
0.000631131
0.00066053
0.000772971
0.00100319
0.000912614
0.000848393
0.000801356
0.000767908
0.000740648
0.000716764
0.000694529
0.000699199
0.000766686
0.00111939
0.00102282
0.000964981
0.000927441
0.000903127
0.000886769
0.000857934
0.000803822
0.000769565
0.000796062
0.00124985
0.00114672
0.00110187
0.00107765
0.00107113
0.00107137
0.00104889
0.000978393
0.000879249
0.000866916
0.00138493
0.00127864
0.00124818
0.00124193
0.001262
0.0012985
0.0012912
0.00122346
0.00105256
0.000983756
0.00176686
0.0015559
0.00142517
0.00126476
0.00109446
0.00101659
0.00100848
0.00103892
0.00117962
0.00150441
0.00145065
0.00130255
0.00116625
0.00102706
0.000925862
0.000890254
0.000899643
0.000971195
0.00119957
0.00158165
0.00141556
0.00120702
0.00103149
0.000909635
0.000835643
0.00082031
0.000843333
0.000933323
0.00117071
0.00152706
0.00135757
0.00111923
0.000967719
0.000868084
0.000808691
0.000800046
0.000826232
0.000914762
0.00113859
0.00145393
0.00127902
0.00108696
0.000957257
0.000868423
0.000819313
0.000812285
0.000833596
0.000909347
0.00110448
0.00140038
0.00125846
0.00111016
0.00100879
0.000937432
0.000897375
0.000885945
0.000893493
0.000931031
0.00107997
0.00136946
0.00133047
0.0012181
0.00112583
0.00106671
0.00103679
0.00102385
0.00101546
0.00101269
0.0010897
0.00135259
0.00147133
0.00136102
0.00128322
0.0012494
0.00123921
0.00123421
0.00121532
0.00116068
0.00116437
0.00134869
0.0016575
0.0015423
0.00149033
0.00148044
0.00149172
0.0015066
0.00149419
0.00141732
0.00132064
0.00141089
0.00187944
0.00175661
0.00172728
0.00173428
0.00177232
0.00182785
0.00185915
0.00180605
0.00164534
0.00164189
0.00208106
0.00183789
0.00163696
0.00145674
0.00136111
0.00135332
0.00139419
0.00152327
0.00175151
0.00208911
0.00185138
0.00164273
0.00143376
0.0012939
0.00122756
0.00123116
0.00130607
0.00148194
0.00176134
0.00213819
0.0018341
0.00153907
0.0013273
0.00121207
0.00116345
0.00117444
0.0012632
0.00144776
0.00173201
0.00207968
0.00175785
0.00146498
0.0012914
0.00118851
0.0011467
0.00115931
0.00124661
0.00141995
0.00168826
0.00199113
0.00170251
0.00144517
0.00129461
0.00120069
0.00116305
0.00117076
0.00124599
0.00140415
0.00165062
0.00194425
0.00169373
0.00149762
0.00138286
0.0012874
0.00124104
0.00123504
0.00128026
0.00140013
0.00163385
0.00192985
0.00177861
0.00164481
0.00153144
0.00143003
0.00137561
0.00136292
0.00138206
0.00144702
0.00163865
0.00194169
0.00194915
0.0018357
0.00171902
0.00162708
0.00158211
0.00157306
0.00158758
0.00160563
0.00169738
0.0019577
0.00218793
0.00206723
0.00195095
0.00187734
0.00185416
0.00186419
0.00190658
0.0019323
0.00194333
0.00207565
0.00250132
0.00233829
0.0022254
0.00217429
0.00216579
0.00220605
0.00229604
0.00238446
0.00243287
0.00248132
0.00211315
0.00187193
0.00165063
0.00151493
0.00147195
0.00149568
0.00159275
0.00176345
0.0019947
0.00229287
0.0019584
0.0017066
0.00148739
0.00138077
0.00135082
0.00138196
0.00149711
0.00167897
0.00191629
0.00221926
0.00190027
0.00158569
0.00139587
0.0013108
0.00128858
0.00131921
0.00143396
0.00161812
0.00185346
0.0021447
0.00181553
0.00153085
0.00136863
0.00128937
0.00126751
0.00129307
0.00139863
0.00157307
0.00180261
0.00206889
0.00178204
0.00152093
0.00137893
0.00129732
0.00126986
0.0012883
0.0013859
0.00155096
0.00177466
0.00204016
0.00179811
0.00158936
0.00148268
0.00137468
0.00132523
0.00132197
0.00139698
0.00154772
0.00176965
0.00204385
0.0018975
0.00174542
0.00164383
0.00151153
0.0014338
0.00141968
0.00147042
0.00159122
0.00178959
0.00207125
0.00206264
0.00195264
0.00183487
0.00169118
0.00161406
0.00160161
0.00165258
0.00174504
0.00187795
0.00211239
0.00230456
0.00219636
0.00204926
0.00191658
0.00186966
0.00187801
0.00196222
0.00207061
0.00216398
0.00229271
0.00263083
0.00247293
0.00230074
0.00220259
0.00217701
0.00221724
0.00234011
0.00250134
0.00263676
0.00269848
0.00128509
0.00122832
0.00116838
0.00113478
0.00112577
0.00112332
0.00112348
0.00115563
0.00122775
0.00132217
0.00124123
0.00114958
0.00108695
0.00106685
0.00106839
0.00106813
0.00107341
0.00111441
0.00118069
0.0012694
0.00122265
0.00110473
0.00105376
0.00103458
0.00102952
0.00103138
0.00105229
0.00109811
0.00116032
0.00123313
0.00119393
0.00108501
0.00104189
0.00102319
0.0010168
0.00102013
0.00104724
0.00109057
0.00114321
0.00118793
0.00118284
0.00107996
0.00104304
0.00102492
0.00101747
0.00102049
0.00104604
0.00108044
0.00112379
0.00116907
0.00118739
0.00110298
0.00108297
0.00105332
0.00103115
0.00102894
0.00104744
0.00107781
0.001123
0.00117337
0.00122795
0.00115857
0.00115884
0.00111429
0.0010584
0.0010486
0.00105922
0.00108826
0.00113356
0.00119649
0.00131498
0.00123119
0.00125548
0.00118615
0.00110114
0.00108008
0.00108956
0.00112022
0.00115904
0.00122664
0.00142667
0.00134869
0.00135423
0.00124946
0.00116029
0.00113807
0.00115051
0.0011843
0.00121747
0.0012679
0.00154853
0.00149896
0.00139261
0.00129256
0.00122404
0.00120076
0.00119918
0.00121962
0.00125855
0.00129993
0.000668468
0.00067291
0.000678329
0.000676763
0.000644021
0.000610977
0.00060008
0.000610638
0.000622072
0.000634068
0.000659223
0.00064125
0.000629236
0.000631638
0.000613201
0.000584466
0.000582
0.000593767
0.000608952
0.000626261
0.000655911
0.000619123
0.00060346
0.000594586
0.000577333
0.000567947
0.000570205
0.000583982
0.000599688
0.000610036
0.000641008
0.000600203
0.000583836
0.000571091
0.000559904
0.000556804
0.000559528
0.000570001
0.000581948
0.000589259
0.000629766
0.000591869
0.000577164
0.000566542
0.000559513
0.000556493
0.00055544
0.00055858
0.000566364
0.00057678
0.000625911
0.000590015
0.000577786
0.000569518
0.000563966
0.000560715
0.000558372
0.000559229
0.000567642
0.000579649
0.000632645
0.000602611
0.000597324
0.000583478
0.000574293
0.000572934
0.000572674
0.00057483
0.000583512
0.000595246
0.000657661
0.00062589
0.00063196
0.000610214
0.000586868
0.000582219
0.000585981
0.000589536
0.000596536
0.000606757
0.000700434
0.000664994
0.000659966
0.000631533
0.000604727
0.000590457
0.000593652
0.000598654
0.000605078
0.000615088
0.00074207
0.0007165
0.000667605
0.000638504
0.000617722
0.000602249
0.000604793
0.000610877
0.000616667
0.000623653
0.000423082
0.000429181
0.00043934
0.000440815
0.000400964
0.000388157
0.000390685
0.00039567
0.000397342
0.0004013
0.000424904
0.000422396
0.000422544
0.00042697
0.000389473
0.000376685
0.000378603
0.000383861
0.000388556
0.000398693
0.000431768
0.000422321
0.000416154
0.00040372
0.000373488
0.000367578
0.000370458
0.00037782
0.000385866
0.000394813
0.000427371
0.000409038
0.000399434
0.000381286
0.000364744
0.000361539
0.000364072
0.000372452
0.000381934
0.000390952
0.000409148
0.000393976
0.000384369
0.000371459
0.000364145
0.00036209
0.000362083
0.000366468
0.000373566
0.000381172
0.000402478
0.000387175
0.000378116
0.000370476
0.000366413
0.000364602
0.000364151
0.000367289
0.000372902
0.000378913
0.00040221
0.000389306
0.000383568
0.000377932
0.000375108
0.000373717
0.000373385
0.00037595
0.000381837
0.000388694
0.000410379
0.000402541
0.000399331
0.000390223
0.000385212
0.000383124
0.000382412
0.000383509
0.000387376
0.000394358
0.000428475
0.000429022
0.00042209
0.000408048
0.000395034
0.000389774
0.000388521
0.00038864
0.000390299
0.00039658
0.000461421
0.000455412
0.000431329
0.000417911
0.000410138
0.000397613
0.000397207
0.00039949
0.000400684
0.000402123
0.000320008
0.000317805
0.000318578
0.000324356
0.000312827
0.000299413
0.000301793
0.000308313
0.000310353
0.000313084
0.000319587
0.000314437
0.000315505
0.000319386
0.000301771
0.000291489
0.00029262
0.000298284
0.000302285
0.000310174
0.000320265
0.0003149
0.000314005
0.000313009
0.000293311
0.000285347
0.000286117
0.000292059
0.000298688
0.000308093
0.000322773
0.000316661
0.000312725
0.000305726
0.000287631
0.000281485
0.000281517
0.000285966
0.000293439
0.000303164
0.000327222
0.000316934
0.000309633
0.000298266
0.000285533
0.000281815
0.000281434
0.000283533
0.000288585
0.000296056
0.000323398
0.000311878
0.000301841
0.000291865
0.00028521
0.000282786
0.000282329
0.00028455
0.000288832
0.000295075
0.000313555
0.000304788
0.000298032
0.000291811
0.000287857
0.000286331
0.000285906
0.000287485
0.000291562
0.000297735
0.000314806
0.000310116
0.000305074
0.000300767
0.000297627
0.00029312
0.000291265
0.000291653
0.000296524
0.000304472
0.000329638
0.000328178
0.0003196
0.000312485
0.000307011
0.000299636
0.00029685
0.000297756
0.000301475
0.000307759
0.000356564
0.000344847
0.000332922
0.000325271
0.000319589
0.000308524
0.000304746
0.000307135
0.000309655
0.000311334
0.000273786
0.000270463
0.00026645
0.000264671
0.000260259
0.000254963
0.000256713
0.000262872
0.000266053
0.000269029
0.000272075
0.000266402
0.000262427
0.000261725
0.0002562
0.000250822
0.000251307
0.000255637
0.000259914
0.000265948
0.000271598
0.000264505
0.000260319
0.000259609
0.00025282
0.000247452
0.000247244
0.000250388
0.000255177
0.000262024
0.000270546
0.000264039
0.000260421
0.000258409
0.000250452
0.000245715
0.000245024
0.000246431
0.000250044
0.00025507
0.000270907
0.000265015
0.000262043
0.000257534
0.000249643
0.000246392
0.000245691
0.000246119
0.00024848
0.000252139
0.000274972
0.000268598
0.000262409
0.000255768
0.000249755
0.000247373
0.000246659
0.000247123
0.00024923
0.000252435
0.000274588
0.000267325
0.000260701
0.000254726
0.000250954
0.000249379
0.000248635
0.000248525
0.000250491
0.000254332
0.000272416
0.000267421
0.000261898
0.000258632
0.0002571
0.000254515
0.000251781
0.000251349
0.000254317
0.000259793
0.000281004
0.000276022
0.000271049
0.000268115
0.000265402
0.000259553
0.000255545
0.000255588
0.000259091
0.000263789
0.000297574
0.000289882
0.000283472
0.000277512
0.000274036
0.000267653
0.000260328
0.000261201
0.000265334
0.000267444
0.000251784
0.000248608
0.000245202
0.000242035
0.000239267
0.000237432
0.00023857
0.000241502
0.000244249
0.000247016
0.000250923
0.000246732
0.000243182
0.000240144
0.000237419
0.000235321
0.000235494
0.000237459
0.000240118
0.00024398
0.000250234
0.000245635
0.000241645
0.000238729
0.000235756
0.000233456
0.000233199
0.000234591
0.000236971
0.000240656
0.000249766
0.00024509
0.000241067
0.000238071
0.000234633
0.000232489
0.000231975
0.000232546
0.000234389
0.000236984
0.000249928
0.000245272
0.000241432
0.000238212
0.000234654
0.000232875
0.00023235
0.000232433
0.000233676
0.00023546
0.000252587
0.000247495
0.000242939
0.000238474
0.000235178
0.000233781
0.000233251
0.000233238
0.00023427
0.000236029
0.000253607
0.000248453
0.000243235
0.000239019
0.000236815
0.000235972
0.000234961
0.000234662
0.000235729
0.00023803
0.000252962
0.00024896
0.000244256
0.000241906
0.00024136
0.000239977
0.000237583
0.000236967
0.000238196
0.000240825
0.000261866
0.000255393
0.000250575
0.000248647
0.000247298
0.000244597
0.000240657
0.000239802
0.000241119
0.000243655
0.000266801
0.000262127
0.000258059
0.000254661
0.000252085
0.000249259
0.000244173
0.000243096
0.000244839
0.000246586
0.000249613
0.00024663
0.000244292
0.000241494
0.000238339
0.000236525
0.000237663
0.00024011
0.00024181
0.000244004
0.000249575
0.000245323
0.000242327
0.000239505
0.000236518
0.000234552
0.00023488
0.000236371
0.000238275
0.000241589
0.000249618
0.000245111
0.000241389
0.000238093
0.000234914
0.000232952
0.000232799
0.000233912
0.000235952
0.000239453
0.000249713
0.000245153
0.000240755
0.00023686
0.000233674
0.000231951
0.000231557
0.000232162
0.000233797
0.000236316
0.000250195
0.000245045
0.000240233
0.000236374
0.00023347
0.000231948
0.000231467
0.000231657
0.000232752
0.000234461
0.000250806
0.000245286
0.00024039
0.000236616
0.000234101
0.000232895
0.000232425
0.000232513
0.000233563
0.000235228
0.000251746
0.00024612
0.000241375
0.000237846
0.000236038
0.000234992
0.00023433
0.000234321
0.000235493
0.00023758
0.000254579
0.0002486
0.000243895
0.000240991
0.000239739
0.00023837
0.000236934
0.000236698
0.000237642
0.000239904
0.000260829
0.000255471
0.000250665
0.000247287
0.000244957
0.000242656
0.00023997
0.00023952
0.000240106
0.000241745
0.000262877
0.000258958
0.000255626
0.000252405
0.000249298
0.000246311
0.000243078
0.000242923
0.000243682
0.000244444
0.000920275
0.000586396
0.000610302
0.000538562
0.000169847
0.000169955
0.000538994
0.000610936
0.000587103
0.000920882
0.000586698
0.000206824
0.000116342
8.48679e-05
2.90952e-05
2.91108e-05
8.49351e-05
0.000116472
0.000207093
0.000587592
0.000610759
0.000116407
2.74028e-05
1.39943e-05
7.78324e-06
7.78542e-06
1.40027e-05
2.74373e-05
0.000116624
0.00061177
0.000538904
8.49187e-05
1.39988e-05
6.35037e-06
5.4841e-06
5.48199e-06
6.35001e-06
1.40196e-05
8.5108e-05
0.000539847
0.000169928
2.91075e-05
7.78497e-06
5.48209e-06
5.24258e-06
5.24237e-06
5.48182e-06
7.78804e-06
2.91606e-05
0.000170241
0.000170006
2.9121e-05
7.7839e-06
5.48154e-06
5.24236e-06
5.2424e-06
5.48189e-06
7.78833e-06
2.91622e-05
0.000170235
0.000539562
8.50622e-05
1.40169e-05
6.35081e-06
5.48188e-06
5.48188e-06
6.35116e-06
1.40218e-05
8.51021e-05
0.000539661
0.000611723
0.000116648
2.74621e-05
1.40215e-05
7.78816e-06
7.78753e-06
1.40207e-05
2.74576e-05
0.000116629
0.00061161
0.000587716
0.000207254
0.000116648
8.50965e-05
2.91568e-05
2.91523e-05
8.50866e-05
0.000116623
0.000207197
0.00058751
0.000921634
0.00058762
0.000611666
0.000539629
0.000170166
0.000170189
0.000539653
0.000611568
0.000587483
0.000921349
0.000199111
0.000112094
0.000111729
9.8816e-05
3.33615e-05
3.33801e-05
9.88915e-05
0.000111838
0.00011222
0.000199259
0.000112134
3.8311e-05
2.24226e-05
1.72776e-05
8.10537e-06
8.10785e-06
1.72886e-05
2.24434e-05
3.83545e-05
0.000112324
0.000111801
2.24324e-05
7.53362e-06
5.42422e-06
4.46591e-06
4.46638e-06
5.4255e-06
7.53845e-06
2.24719e-05
0.00011203
9.88782e-05
1.72863e-05
5.42494e-06
4.18978e-06
4.03036e-06
4.0293e-06
4.18901e-06
5.42755e-06
1.73206e-05
9.90879e-05
3.33771e-05
8.10752e-06
4.46632e-06
4.02936e-06
3.95427e-06
3.9542e-06
4.02919e-06
4.46594e-06
8.1159e-06
3.34377e-05
3.33894e-05
8.10905e-06
4.46526e-06
4.02913e-06
3.9542e-06
3.95423e-06
4.02923e-06
4.46602e-06
8.11625e-06
3.34394e-05
9.90242e-05
1.73124e-05
5.42714e-06
4.18906e-06
4.02923e-06
4.02924e-06
4.18914e-06
5.42792e-06
1.73219e-05
9.91126e-05
0.000112024
2.24766e-05
7.54245e-06
5.42786e-06