/*--------------------------------*- C++ -*----------------------------------*\
  =========                 |
  \\      /  F ield         | OpenFOAM: The Open Source CFD Toolbox
   \\    /   O peration     | Website:  https://openfoam.org
    \\  /    A nd           | Version:  9
     \\/     M anipulation  |
\*---------------------------------------------------------------------------*/
FoamFile
{
    format      ascii;
    class       volScalarField;
    location    "1";
    object      f20.gas;
}
// * * * * * * * * * * * * * * * * * * * * * * * * * * * * * * * * * * * * * //

dimensions      [0 0 0 0 0 0 0];

internalField   nonuniform List<scalar> 
137980
(
0.0121757
0.00805282
0.00950526
0.00905491
0.00682227
0.00737807
0.00881909
0.00927894
0.00876184
0.00897884
0.0109317
0.00601218
0.00590677
0.00665106
0.0063755
0.00562136
0.00537922
0.00556036
0.00613746
0.00874532
0.0135743
0.00722867
0.00557344
0.00597479
0.0067696
0.00563592
0.00503399
0.00564557
0.00795709
0.0106707
0.0129106
0.0078215
0.00607481
0.00635993
0.00680796
0.00575717
0.00514665
0.00515567
0.0068276
0.00907977
0.00834033
0.00624669
0.00634942
0.00696048
0.0064992
0.00557825
0.00502514
0.0049244
0.00551976
0.00800648
0.00808241
0.00694119
0.00711523
0.00656349
0.00581762
0.0050999
0.00465048
0.00497575
0.00632879
0.0122489
0.0101722
0.0075042
0.00605941
0.00577637
0.00595568
0.0051064
0.004303
0.00507883
0.00814504
0.0156404
0.0122009
0.00748477
0.00610272
0.00635666
0.00635257
0.00564953
0.00470482
0.00508386
0.00862632
0.0144766
0.0147091
0.00814892
0.00702249
0.00673918
0.00635001
0.00648746
0.00676601
0.00522846
0.00754276
0.0137458
0.0153968
0.0118227
0.0151222
0.0123603
0.00687123
0.00796478
0.0138058
0.00994983
0.00850825
0.0167306
0.0146612
0.00902171
0.00585802
0.00484311
0.00500192
0.00371567
0.00370496
0.00455276
0.00971124
0.0165724
0.0132847
0.00671835
0.00422766
0.00310501
0.00252608
0.00242664
0.00312794
0.00476793
0.00763718
0.00981877
0.0121894
0.00748661
0.0048881
0.00321414
0.00242641
0.00219479
0.00273146
0.00395402
0.00508096
0.00664882
0.0107587
0.00721429
0.00490423
0.00303747
0.00234884
0.00238694
0.00300448
0.00397509
0.00485502
0.00617425
0.00822582
0.0063975
0.00481526
0.00285531
0.00235881
0.00272743
0.00392861
0.00442834
0.00502559
0.00655224
0.00933936
0.00675305
0.00425468
0.00298234
0.00325227
0.00298929
0.00411255
0.00464168
0.00515636
0.00757587
0.0069177
0.00518697
0.00292254
0.00404636
0.00455053
0.00367884
0.00337607
0.00472475
0.00481303
0.00571088
0.00324087
0.0031147
0.00347292
0.00562056
0.00643109
0.00570454
0.0040547
0.00376977
0.00422696
0.00547088
0.00296842
0.00315482
0.00476136
0.00819345
0.0104641
0.00886276
0.00772572
0.00474554
0.00398231
0.00476021
0.00327469
0.00253268
0.00371769
0.0117382
0.0152235
0.0117301
0.00983232
0.00650441
0.00492909
0.00770772
0.00230692
0.00312611
0.0029404
0.00257285
0.00202842
0.00172465
0.00159328
0.00155124
0.00157745
0.00265725
0.00389571
0.0045652
0.00400519
0.00322411
0.00250664
0.00190947
0.00158038
0.00156009
0.00176053
0.00204177
0.00738943
0.00613004
0.00417825
0.00316833
0.00237855
0.0017296
0.0014899
0.00156167
0.00211862
0.00286879
0.00826518
0.00655193
0.00335693
0.00209135
0.00169838
0.0015208
0.00149597
0.00167924
0.00226638
0.00308136
0.00828694
0.00484769
0.00189858
0.0017122
0.00168685
0.00163338
0.00167052
0.00179092
0.00220936
0.00335884
0.00377536
0.00214625
0.00180677
0.00184982
0.00189116
0.00182269
0.00185502
0.00205637
0.00273389
0.00269087
0.00209759
0.00192135
0.00198592
0.00212325
0.00208412
0.00197214
0.00232276
0.00333438
0.00465162
0.0042353
0.00208208
0.00226783
0.00234156
0.00233668
0.0022961
0.00277614
0.00451887
0.00646079
0.00609376
0.00513645
0.00222674
0.00233948
0.0024322
0.00244372
0.00264484
0.0053803
0.00817782
0.00771696
0.00591307
0.00451382
0.00223164
0.00217206
0.00239847
0.0022248
0.00443223
0.00973502
0.00961892
0.00771631
0.00255384
0.00241351
0.00217866
0.0015957
0.00142238
0.00132691
0.00105812
0.000937286
0.00105638
0.0013157
0.00156888
0.00146916
0.00188808
0.00136654
0.00129264
0.00114969
0.000993986
0.00116652
0.00141205
0.00158622
0.00184421
0.00166245
0.00131267
0.00106678
0.00104496
0.00103297
0.00145654
0.00166504
0.00171892
0.00181491
0.00205308
0.0018594
0.00149161
0.00125082
0.00118003
0.00158592
0.00176617
0.00184374
0.0018594
0.00190339
0.00204625
0.00199251
0.00218485
0.00161352
0.001692
0.00176611
0.00188882
0.00194333
0.00190858
0.00191703
0.00196761
0.00196092
0.00184536
0.00186873
0.00187758
0.00198351
0.00214896
0.00205257
0.00192082
0.00191968
0.0019838
0.00195203
0.00219396
0.00220102
0.00228574
0.00244021
0.00233651
0.00205815
0.00193271
0.00197556
0.00208352
0.00189493
0.00275309
0.0028427
0.00281489
0.00260385
0.00231136
0.00196759
0.00203411
0.00241287
0.00217361
0.0016666
0.00335913
0.00319727
0.00297588
0.00251765
0.00228752
0.00218603
0.00288395
0.00292715
0.0020833
0.00182691
0.00273505
0.00280642
0.00301202
0.00253085
0.00269252
0.00290664
0.00419634
0.00290968
0.00271284
0.00275891
0.00272223
0.00216444
0.00173487
0.0016536
0.00167775
0.00154705
0.00136757
0.00143761
0.00153026
0.001465
0.00168718
0.00134013
0.00145988
0.00155578
0.00133251
0.00129833
0.00145183
0.00158904
0.00170922
0.00163179
0.00134567
0.00108316
0.00109854
0.00114
0.00135436
0.00154931
0.00160096
0.00161089
0.001605
0.00146649
0.00128969
0.00105114
0.00110178
0.00128379
0.00149733
0.00157791
0.0015629
0.00144419
0.00130906
0.00120803
0.00148627
0.00126661
0.00123593
0.00129144
0.0014582
0.00154955
0.00148624
0.00128005
0.00117817
0.00113862
0.00167309
0.00154629
0.00144629
0.00152871
0.00173354
0.00167285
0.00145623
0.00122816
0.00115967
0.00114417
0.00213089
0.001988
0.0020543
0.00220707
0.00204462
0.00170845
0.00131962
0.00121888
0.00123909
0.00115324
0.00298898
0.00289022
0.00281994
0.00248305
0.00181829
0.00128938
0.00122377
0.00136924
0.00130712
0.00113547
0.00453971
0.00368276
0.00301776
0.00195322
0.00135379
0.00111956
0.00141061
0.00144549
0.00137003
0.0012329
0.0036878
0.00323033
0.00265182
0.00181107
0.00134047
0.00123726
0.00146197
0.0014693
0.00150741
0.00145809
0.00152901
0.00119371
0.000922063
0.000838135
0.000867436
0.000995803
0.00111811
0.00125066
0.00129261
0.00114713
0.00095209
0.00100613
0.000962896
0.000942297
0.000979837
0.00107242
0.001194
0.00131163
0.00141057
0.00128869
0.000744546
0.000980438
0.000998829
0.000993245
0.00101907
0.00111126
0.00121514
0.00128138
0.00131448
0.00123138
0.000678785
0.000971251
0.00100565
0.00102301
0.00106249
0.00109934
0.00114681
0.00116406
0.00115753
0.00107939
0.00076882
0.00111605
0.0011689
0.00116344
0.00113483
0.00111403
0.00112244
0.00112652
0.00109948
0.000984157
0.00130713
0.00143259
0.00140736
0.00134729
0.00125744
0.00122566
0.00122459
0.0011921
0.0010988
0.000937716
0.00158797
0.0015563
0.00148754
0.00140171
0.00135901
0.00136239
0.00133933
0.00125051
0.0010418
0.000897517
0.0020485
0.00185952
0.00173118
0.00154863
0.00143282
0.0014151
0.00135024
0.00111928
0.000940229
0.000887324
0.00198192
0.00185212
0.00160733
0.00134726
0.00115483
0.00111674
0.000992762
0.000922196
0.000935145
0.00101471
0.00174829
0.0012797
0.000817198
0.000639328
0.000582748
0.000679373
0.000883302
0.00095544
0.00113114
0.00122687
0.000957843
0.000783791
0.000527948
0.000465889
0.000527636
0.000580783
0.00073446
0.000971106
0.00102229
0.00096328
0.000712495
0.000696908
0.000603233
0.000503962
0.000499502
0.000558445
0.000762982
0.000971003
0.00103206
0.00101221
0.000512812
0.000527874
0.000522552
0.000484042
0.000488331
0.00056554
0.000768694
0.000941146
0.000957459
0.000915966
0.000525695
0.000469912
0.00044407
0.000446197
0.000475116
0.00056476
0.000703739
0.000804961
0.00081592
0.000792569
0.000492632
0.000476932
0.00043322
0.000429736
0.000448825
0.000519444
0.000635989
0.000737089
0.000757466
0.000749585
0.000580728
0.000599017
0.000570818
0.000564009
0.000583243
0.000638766
0.000705127
0.000757987
0.000757409
0.00074969
0.000870257
0.000861217
0.000819895
0.000770595
0.000759502
0.000766944
0.000784827
0.000821505
0.000826269
0.000814399
0.00112017
0.00105909
0.000955736
0.000935152
0.000895128
0.000866773
0.000880627
0.000919799
0.000913041
0.000872352
0.00136673
0.00124103
0.00112026
0.00106373
0.000952724
0.000903277
0.000918684
0.000944056
0.000921635
0.000839191
0.00132351
0.00116012
0.00100289
0.000851943
0.000653325
0.000629968
0.000662953
0.000653567
0.000728033
0.000730942
0.000499563
0.000358871
0.000225758
0.000204723
0.00025002
0.000425176
0.000604543
0.000638991
0.000619869
0.000652848
0.000430114
0.000371363
0.000257927
0.000221153
0.000233903
0.000363957
0.000614657
0.00067191
0.000611142
0.000603984
0.000287332
0.000328152
0.000297464
0.000230623
0.000230158
0.000342028
0.000604507
0.000669073
0.000644798
0.000553182
0.000210681
0.000278058
0.000267494
0.000214533
0.000219757
0.000343684
0.000564202
0.000594405
0.000565152
0.00047726
0.000149662
0.000195241
0.000188005
0.000176442
0.000209146
0.000360077
0.000480586
0.000473148
0.000430838
0.000409261
0.000183226
0.000164893
0.000164225
0.000171917
0.00020824
0.000310331
0.000363147
0.000369811
0.000383348
0.000405411
0.000319686
0.000212065
0.000176677
0.000180085
0.000199377
0.000234853
0.00028497
0.000344102
0.000390604
0.000440909
0.000442035
0.000337627
0.000244823
0.000211397
0.000216309
0.000238912
0.000277865
0.00036966
0.000467904
0.000459147
0.000614606
0.000496797
0.000411491
0.000334289
0.000296858
0.000306039
0.000346152
0.000462267
0.000524112
0.000467464
0.000654708
0.000578818
0.000516166
0.00048254
0.000415441
0.000413325
0.000442093
0.000524348
0.000539403
0.000488431
0.000155475
0.000112537
0.000104617
0.000111418
0.000131105
0.00015602
0.000176899
0.000186716
0.000252311
0.00030138
0.00015469
0.000134032
0.000107708
0.000110075
0.000127399
0.000146341
0.000156857
0.00014928
0.000152212
0.000194448
0.000147951
0.000133716
0.000110506
0.000111068
0.000126643
0.000140418
0.000144984
0.000132137
0.000126939
0.000144903
0.00013425
0.000121144
0.000107832
0.000109848
0.00012014
0.000123965
0.000115661
0.000107909
0.00011518
0.000130553
0.000118695
0.000110958
0.000107604
0.000109477
0.000110149
0.000105994
0.000101596
0.000101637
0.000118215
0.000135746
0.000131083
0.000118934
0.000114516
0.000112955
0.000109591
0.000103651
0.000102089
0.000110609
0.000138137
0.000165023
0.000171509
0.000148026
0.000137487
0.000130145
0.000123428
0.00011437
0.000111842
0.000126317
0.000159884
0.000198247
0.000259529
0.000202581
0.000169054
0.000152143
0.000144795
0.000131505
0.000123891
0.000145007
0.000182734
0.000215592
0.000357061
0.00030213
0.000248315
0.000199527
0.000170245
0.000152317
0.000133618
0.000165037
0.000191077
0.000217281
0.000377544
0.000341337
0.000311526
0.000265405
0.000211229
0.00016976
0.00015148
0.000175366
0.000183331
0.000201838
0.000154951
0.000108139
9.25795e-05
7.84732e-05
7.8044e-05
8.05284e-05
7.62166e-05
7.00972e-05
7.09844e-05
7.61715e-05
0.000148952
0.000111721
8.65344e-05
7.56295e-05
7.77718e-05
8.0541e-05
7.71761e-05
6.95385e-05
6.98456e-05
7.4936e-05
0.000133276
0.000117346
8.99412e-05
8.06937e-05
8.09143e-05
8.10404e-05
7.69429e-05
7.00213e-05
7.05294e-05
7.57068e-05
0.00011421
0.000107716
9.11166e-05
8.62108e-05
8.40068e-05
8.14702e-05
7.52924e-05
7.1136e-05
7.27529e-05
7.89163e-05
0.000119803
0.000107857
9.72741e-05
9.39264e-05
8.90236e-05
8.36064e-05
7.66381e-05
7.44416e-05
7.65646e-05
8.34697e-05
0.000198617
0.000149247
0.000125054
0.000112073
0.000101343
9.2508e-05
8.23794e-05
7.90372e-05
8.07858e-05
8.99276e-05
0.000257028
0.000233378
0.000200792
0.0001692
0.000142477
0.000120276
9.77113e-05
8.64993e-05
8.66344e-05
9.77247e-05
0.000285566
0.000269896
0.000250008
0.000220564
0.000190483
0.000161962
0.000126678
9.97496e-05
9.38937e-05
0.000104667
0.000329487
0.000307708
0.000293842
0.00027393
0.000241192
0.000214781
0.000171021
0.000121385
0.000100752
0.000108145
0.000315725
0.00030041
0.000285801
0.00027481
0.000251632
0.000230025
0.000205942
0.000155089
0.000114694
0.000110095
0.000153918
0.000136747
0.000107814
7.88643e-05
6.37981e-05
5.9181e-05
5.79502e-05
5.83592e-05
6.01516e-05
6.32502e-05
0.000122849
0.000102206
7.64577e-05
6.37981e-05
5.88006e-05
5.67547e-05
5.63917e-05
5.74363e-05
5.99026e-05
6.48998e-05
9.3243e-05
7.8268e-05
6.64939e-05
6.08046e-05
5.87093e-05
5.81051e-05
5.82137e-05
6.03366e-05
6.32266e-05
6.84577e-05
9.02428e-05
7.7244e-05
6.93131e-05
6.67442e-05
6.53945e-05
6.4037e-05
6.43904e-05
6.67981e-05
6.88754e-05
7.37622e-05
0.000131461
0.000106233
9.26697e-05
8.59557e-05
8.17853e-05
7.72848e-05
7.60018e-05
7.62922e-05
7.70813e-05
8.00478e-05
0.000196712
0.000160722
0.000134812
0.000118655
0.000108059
9.90688e-05
9.1995e-05
8.85278e-05
8.60695e-05
8.70453e-05
0.000252718
0.000216681
0.00018233
0.000155158
0.000137095
0.000123148
0.00011172
0.000104128
9.65085e-05
9.64575e-05
0.000279769
0.000247501
0.000216238
0.000187132
0.000159619
0.000136855
0.000123014
0.000113112
0.000104242
0.000104931
0.000266533
0.000238504
0.000209583
0.000183183
0.000158067
0.000136034
0.000124363
0.000115224
0.000108423
0.000114361
0.000220936
0.000199601
0.000180363
0.000162677
0.00014568
0.000132332
0.000124625
0.000115616
0.000111691
0.000123822
0.000146499
0.00012365
9.73367e-05
7.95877e-05
6.98168e-05
6.21377e-05
5.75126e-05
5.59433e-05
5.64679e-05
5.85611e-05
9.81101e-05
8.50128e-05
7.19303e-05
6.34716e-05
5.82967e-05
5.40261e-05
5.13285e-05
5.12596e-05
5.2655e-05
5.77367e-05
8.3268e-05
7.14689e-05
6.35302e-05
5.87927e-05
5.5508e-05
5.25685e-05
5.02342e-05
5.02244e-05
5.21152e-05
5.98325e-05
8.29935e-05
7.22903e-05
6.54694e-05
6.2421e-05
6.05146e-05
5.733e-05
5.23399e-05
5.12526e-05
5.38364e-05
6.47432e-05
9.76397e-05
8.54264e-05
7.79386e-05
7.29382e-05
6.91334e-05
6.35683e-05
5.68873e-05
5.41613e-05
5.67089e-05
7.05116e-05
0.000120277
0.000106142
9.37153e-05
8.42208e-05
7.73899e-05
7.05465e-05
6.32869e-05
5.86112e-05
5.95832e-05
7.21392e-05
0.000141571
0.000121333
0.000107651
9.70793e-05
8.7416e-05
7.92323e-05
7.11064e-05
6.46367e-05
6.42507e-05
7.32169e-05
0.000148555
0.000127757
0.000117761
0.000108877
9.86723e-05
9.00647e-05
8.13798e-05
7.32558e-05
7.18177e-05
7.9174e-05
0.000145939
0.000133968
0.000129169
0.000120802
0.000111851
0.000105059
9.57422e-05
8.49651e-05
8.34882e-05
9.6956e-05
0.000145818
0.000149755
0.00014304
0.000135654
0.000131725
0.000129044
0.00012037
0.000100621
9.63196e-05
0.000103787
0.000168587
0.000157406
0.000133131
0.000118843
0.000103569
8.89103e-05
7.52429e-05
6.67226e-05
6.4819e-05
6.93314e-05
0.000105745
0.000105122
9.62223e-05
8.54049e-05
7.31495e-05
6.19176e-05
5.56574e-05
5.41855e-05
5.66184e-05
7.04458e-05
8.66131e-05
7.6856e-05
6.91263e-05
6.15843e-05
5.45482e-05
4.98189e-05
4.85861e-05
4.92075e-05
5.40618e-05
7.5135e-05
8.46063e-05
7.2195e-05
6.22502e-05
5.54448e-05
5.03846e-05
4.74427e-05
4.70755e-05
4.79685e-05
5.36001e-05
7.90734e-05
9.25601e-05
7.88537e-05
6.6738e-05
5.86276e-05
5.30239e-05
4.95299e-05
4.84952e-05
4.89793e-05
5.38689e-05
7.63355e-05
0.000108054
9.48785e-05
8.06939e-05
7.05425e-05
6.32689e-05
5.79381e-05
5.45789e-05
5.31172e-05
5.52481e-05
7.00003e-05
0.000127518
0.000113923
9.76723e-05
8.61999e-05
7.75321e-05
7.07935e-05
6.53913e-05
5.94447e-05
5.89923e-05
6.62247e-05
0.000150015
0.000133314
0.000115594
0.000104341
9.58036e-05
8.88201e-05
8.22854e-05
7.13926e-05
6.5627e-05
6.82503e-05
0.000172025
0.00014814
0.000133388
0.000124897
0.000118746
0.000113729
0.000107276
9.26814e-05
7.77412e-05
7.47923e-05
0.000187508
0.000160999
0.000152688
0.000148864
0.000147193
0.000147969
0.000143447
0.000128209
0.000100318
8.7088e-05
0.000205554
0.000174121
0.000151352
0.00013383
0.000107129
8.2371e-05
7.15394e-05
7.06353e-05
7.92089e-05
0.000116502
0.000143732
0.000124358
0.000108901
9.36501e-05
7.51854e-05
6.38415e-05
6.0879e-05
6.28906e-05
7.99552e-05
0.000133483
0.000122142
0.000105579
8.89625e-05
7.35394e-05
6.22411e-05
5.64401e-05
5.59268e-05
5.8737e-05
7.64971e-05
0.000126099
0.000104651
8.677e-05
7.34656e-05
6.43821e-05
5.7674e-05
5.4176e-05
5.42711e-05
5.69465e-05
6.98253e-05
0.000107383
9.8548e-05
8.21226e-05
7.15781e-05
6.4261e-05
5.90958e-05
5.59392e-05
5.56341e-05
5.71331e-05
6.51365e-05
9.14029e-05
0.000106211
9.17211e-05
8.21083e-05
7.52291e-05
7.03616e-05
6.60603e-05
6.34945e-05
6.24857e-05
6.55385e-05
8.22132e-05
0.000125467
0.000111043
0.000101204
9.42363e-05
8.92083e-05
8.4536e-05
7.98899e-05
7.29952e-05
7.20114e-05
8.13393e-05
0.000151406
0.000134328
0.000125018
0.000119311
0.000115576
0.000112521
0.000106384
9.32293e-05
8.28289e-05
8.59835e-05
0.000181813
0.000161112
0.000153811
0.000150268
0.000149811
0.000149902
0.00014425
0.000127068
0.000101263
9.71724e-05
0.000212651
0.000189713
0.000184649
0.000184593
0.000189968
0.000198868
0.000196285
0.000178112
0.000133734
0.000116576
0.000268043
0.000218585
0.000191777
0.000157262
0.000122677
0.000107112
0.000104741
0.000109199
0.000134699
0.000201495
0.000191368
0.000163335
0.000137997
0.000112711
9.53129e-05
8.89081e-05
9.01235e-05
0.000101087
0.000141939
0.000225012
0.000186798
0.00014657
0.000114623
9.46794e-05
8.31761e-05
8.04999e-05
8.3656e-05
9.74429e-05
0.000140662
0.00021709
0.000177246
0.000130639
0.000104822
8.92651e-05
8.02385e-05
7.86464e-05
8.22981e-05
9.60776e-05
0.000136173
0.000202101
0.000159663
0.000124812
0.000103756
9.06462e-05
8.3727e-05
8.25555e-05
8.5327e-05
9.61663e-05
0.000130355
0.00019161
0.000154784
0.000129728
0.000114626
0.000104581
9.90653e-05
9.6987e-05
9.71219e-05
0.00010091
0.00012576
0.000184859
0.000169969
0.000152986
0.000138781
0.000130314
0.000126395
0.00012395
0.000120377
0.000115226
0.000127377
0.000179906
0.000202664
0.000185213
0.000172769
0.000168783
0.00016831
0.000167013
0.000160919
0.000143253
0.000140193
0.000176138
0.000249003
0.000227668
0.000219915
0.000220425
0.000224165
0.000227279
0.000222315
0.000198443
0.00016805
0.000185551
0.000306673
0.000279382
0.000275347
0.000279259
0.000289744
0.000303562
0.000309919
0.000290986
0.000239311
0.000231378
0.000318551
0.000260936
0.000216351
0.000179021
0.000160026
0.000157379
0.000164755
0.000189471
0.000237778
0.000315439
0.000264114
0.000219954
0.000176993
0.000150777
0.000138763
0.000139283
0.000153042
0.00018688
0.000247012
0.000337117
0.000266583
0.000201269
0.000158989
0.000138444
0.000130162
0.00013234
0.000149068
0.000184834
0.000246741
0.000330058
0.000251998
0.000186532
0.00015349
0.000135558
0.000128683
0.000131372
0.000148184
0.000183156
0.000241654
0.000312815
0.000237
0.000182532
0.000155318
0.000139933
0.000134206
0.000136041
0.000150026
0.000181343
0.000235479
0.000303999
0.00023242
0.000193186
0.000174386
0.000158477
0.000150805
0.000149746
0.00015742
0.000180628
0.00023157
0.000301512
0.000248962
0.000225257
0.000206432
0.000188679
0.000179071
0.000176623
0.000178501
0.000188918
0.000230171
0.00030173
0.000287209
0.000269745
0.000249049
0.000232708
0.000224978
0.000223602
0.000224674
0.000223508
0.000239382
0.000299955
0.000347365
0.000327584
0.000305329
0.000292416
0.000289577
0.000293864
0.000302807
0.000304266
0.000298401
0.000323994
0.000434619
0.000398482
0.000375313
0.000366821
0.000367628
0.000380933
0.000405215
0.000425284
0.000431605
0.000434055
0.000318077
0.000263517
0.000214479
0.000188643
0.000180578
0.000185149
0.00020369
0.000237792
0.000287877
0.000357458
0.000287267
0.000230526
0.000185218
0.000166146
0.00016138
0.000167363
0.000189036
0.000225551
0.000277432
0.000349442
0.000279617
0.000207328
0.000170548
0.000156004
0.000152702
0.000158886
0.000180963
0.000218247
0.000270194
0.000339947
0.000261049
0.000197113
0.000166723
0.000153473
0.000150293
0.000156059
0.000177241
0.000213847
0.00026527
0.000328145
0.000251803
0.000195747
0.000170549
0.000157062
0.000152605
0.000156481
0.000176128
0.000211167
0.000261313
0.000323774
0.000252613
0.000210462
0.00019322
0.000173899
0.000164652
0.000163917
0.000178724
0.000210508
0.000260352
0.000326332
0.000272602
0.000243838
0.000227981
0.000202994
0.000187291
0.000184242
0.000193395
0.000217797
0.000261518
0.000329134
0.000308374
0.000290868
0.000271054
0.000242481
0.000227074
0.000224793
0.000234775
0.00025249
0.000278976
0.000333552
0.000365431
0.000351008
0.000322362
0.000295402
0.000287195
0.000291405
0.000312036
0.000336494
0.000353634
0.000377415
0.000454171
0.000424281
0.000385551
0.00036688
0.000364519
0.000378316
0.00041069
0.000453681
0.000487238
0.000493646
0.000173835
0.000161161
0.000147488
0.000140744
0.000139784
0.000140242
0.000141092
0.000147623
0.000162483
0.000181978
0.000166007
0.000144698
0.000131798
0.000128169
0.000129095
0.000130179
0.000131729
0.000140418
0.000154053
0.000171967
0.000162733
0.000135656
0.000125764
0.000122455
0.000121851
0.000123049
0.00012817
0.000138362
0.000151754
0.000166845
0.000155671
0.000132135
0.000123881
0.000120572
0.000119605
0.00012103
0.000127779
0.000138306
0.000150485
0.00015994
0.000152658
0.000131567
0.000124969
0.000121493
0.000120005
0.000121306
0.000128158
0.000137065
0.000147267
0.000156872
0.000153038
0.000137267
0.000134899
0.000128927
0.00012365
0.000123289
0.000128611
0.000136576
0.000147196
0.000158407
0.000161414
0.000148995
0.00015207
0.000143735
0.000130257
0.000127805
0.000130696
0.000138221
0.00014886
0.000163169
0.00017944
0.00016308
0.000173636
0.000160014
0.000140391
0.00013527
0.000137521
0.00014549
0.000154338
0.00016905
0.000202463
0.000187314
0.000194806
0.000172958
0.000153413
0.000148852
0.000152511
0.000161079
0.000168206
0.000178058
0.000227285
0.000222228
0.000201248
0.000180141
0.000166933
0.000162792
0.000162917
0.000167032
0.000174258
0.000182736
7.10625e-05
7.18291e-05
7.28818e-05
7.28034e-05
6.7655e-05
6.23372e-05
6.07357e-05
6.27278e-05
6.41739e-05
6.55513e-05
6.92284e-05
6.62203e-05
6.45538e-05
6.52399e-05
6.2747e-05
5.85086e-05
5.82985e-05
6.04293e-05
6.26014e-05
6.45323e-05
6.82556e-05
6.25234e-05
6.05856e-05
5.96757e-05
5.74419e-05
5.60837e-05
5.67065e-05
5.90383e-05
6.12859e-05
6.23319e-05
6.57945e-05
5.98299e-05
5.76689e-05
5.60659e-05
5.46346e-05
5.42512e-05
5.48297e-05
5.65331e-05
5.83109e-05
5.90414e-05
6.40226e-05
5.87702e-05
5.67693e-05
5.53742e-05
5.44565e-05
5.40803e-05
5.39648e-05
5.44147e-05
5.54815e-05
5.69614e-05
6.34264e-05
5.8733e-05
5.7321e-05
5.60938e-05
5.523e-05
5.48043e-05
5.45071e-05
5.46287e-05
5.57922e-05
5.75703e-05
6.46212e-05
6.11095e-05
6.09893e-05
5.88885e-05
5.70037e-05
5.67006e-05
5.67023e-05
5.71409e-05
5.84342e-05
6.01448e-05
6.87158e-05
6.45353e-05
6.66158e-05
6.35933e-05
5.93966e-05
5.80983e-05
5.86519e-05
5.94364e-05
6.07428e-05
6.20909e-05
7.56811e-05
7.01149e-05
7.02202e-05
6.60224e-05
6.20544e-05
5.93736e-05
5.99219e-05
6.11986e-05
6.22575e-05
6.32033e-05
8.21583e-05
7.85397e-05
7.09382e-05
6.66072e-05
6.34867e-05
6.09823e-05
6.1492e-05
6.25168e-05
6.32351e-05
6.42544e-05
3.65943e-05
3.75614e-05
3.8999e-05
3.92738e-05
3.36658e-05
3.20892e-05
3.25486e-05
3.31901e-05
3.33493e-05
3.37781e-05
3.68258e-05
3.6565e-05
3.66714e-05
3.74242e-05
3.23349e-05
3.08174e-05
3.11888e-05
3.19353e-05
3.24387e-05
3.34994e-05
3.76608e-05
3.64547e-05
3.58624e-05
3.4333e-05
3.04278e-05
2.98087e-05
3.02799e-05
3.12631e-05
3.21656e-05
3.29961e-05
3.67483e-05
3.46192e-05
3.36254e-05
3.13133e-05
2.93143e-05
2.89995e-05
2.94584e-05
3.05957e-05
3.1675e-05
3.25845e-05
3.42602e-05
3.25322e-05
3.15442e-05
2.99973e-05
2.91805e-05
2.8973e-05
2.9011e-05
2.95611e-05
3.04165e-05
3.12618e-05
3.33999e-05
3.16173e-05
3.06854e-05
2.98983e-05
2.95137e-05
2.93385e-05
2.92869e-05
2.96412e-05
3.02471e-05
3.08729e-05
3.3435e-05
3.20304e-05
3.14254e-05
3.08331e-05
3.05786e-05
3.04818e-05
3.04782e-05
3.0842e-05
3.15542e-05
3.2292e-05
3.47525e-05
3.40603e-05
3.37927e-05
3.24479e-05
3.17799e-05
3.16297e-05
3.17248e-05
3.19233e-05
3.23513e-05
3.30283e-05
3.70772e-05
3.75752e-05
3.67498e-05
3.49668e-05
3.30919e-05
3.23825e-05
3.24011e-05
3.24983e-05
3.26852e-05
3.32683e-05
4.14226e-05
4.08803e-05
3.77265e-05
3.59548e-05
3.50422e-05
3.32426e-05
3.33599e-05
3.36841e-05
3.3808e-05
3.3925e-05
2.40924e-05
2.38694e-05
2.39914e-05
2.44719e-05
2.30438e-05
2.16934e-05
2.21062e-05
2.28499e-05
2.30713e-05
2.33257e-05
2.40395e-05
2.35251e-05
2.36486e-05
2.39622e-05
2.19487e-05
2.09413e-05
2.11616e-05
2.19192e-05
2.22946e-05
2.30674e-05
2.40821e-05
2.35649e-05
2.34353e-05
2.31958e-05
2.10603e-05
2.03519e-05
2.04983e-05
2.12615e-05
2.19698e-05
2.28311e-05
2.4282e-05
2.36502e-05
2.3191e-05
2.24118e-05
2.04795e-05
1.98939e-05
1.99033e-05
2.05525e-05
2.13422e-05
2.23221e-05
2.45911e-05
2.35506e-05
2.27998e-05
2.15839e-05
2.02e-05
1.98115e-05
1.97754e-05
2.0071e-05
2.0612e-05
2.1355e-05
2.39566e-05
2.28068e-05
2.18568e-05
2.07745e-05
2.01194e-05
1.99138e-05
1.99309e-05
2.01678e-05
2.05999e-05
2.11802e-05
2.27746e-05
2.19501e-05
2.1342e-05
2.07445e-05
2.04063e-05
2.03009e-05
2.03097e-05
2.05303e-05
2.09468e-05
2.15492e-05
2.30317e-05
2.26346e-05
2.21349e-05
2.16783e-05
2.1378e-05
2.10109e-05
2.0897e-05
2.1117e-05
2.16335e-05
2.24541e-05
2.49203e-05
2.50142e-05
2.41302e-05
2.32279e-05
2.24705e-05
2.17148e-05
2.15612e-05
2.17939e-05
2.22016e-05
2.28109e-05
2.80434e-05
2.68866e-05
2.55537e-05
2.473e-05
2.39526e-05
2.26014e-05
2.2346e-05
2.27534e-05
2.30206e-05
2.31464e-05
1.88487e-05
1.85242e-05
1.8136e-05
1.77756e-05
1.72486e-05
1.68193e-05
1.71656e-05
1.78392e-05
1.8148e-05
1.83921e-05
1.87135e-05
1.81661e-05
1.77418e-05
1.74808e-05
1.68813e-05
1.64412e-05
1.66158e-05
1.71363e-05
1.75819e-05
1.81366e-05
1.86349e-05
1.79357e-05
1.75287e-05
1.71887e-05
1.65432e-05
1.61293e-05
1.6202e-05
1.65762e-05
1.70886e-05
1.77612e-05
1.84785e-05
1.78448e-05
1.7366e-05
1.69992e-05
1.62692e-05
1.58898e-05
1.58838e-05
1.61281e-05
1.65003e-05
1.69962e-05
1.84135e-05
1.78373e-05
1.74295e-05
1.68557e-05
1.60972e-05
1.57967e-05
1.57686e-05
1.59181e-05
1.61906e-05
1.65281e-05
1.86234e-05
1.79778e-05
1.73102e-05
1.65522e-05
1.60193e-05
1.58498e-05
1.58548e-05
1.59873e-05
1.62479e-05
1.6548e-05
1.83058e-05
1.76086e-05
1.69342e-05
1.64004e-05
1.61113e-05
1.60211e-05
1.60561e-05
1.61891e-05
1.64672e-05
1.68518e-05
1.79334e-05
1.75249e-05
1.70328e-05
1.67894e-05
1.66996e-05
1.65389e-05
1.64117e-05
1.6596e-05
1.69504e-05
1.75062e-05
1.89578e-05
1.85532e-05
1.8061e-05
1.78048e-05
1.75593e-05
1.71053e-05
1.68816e-05
1.70735e-05
1.7453e-05
1.79035e-05
2.09601e-05
2.02831e-05
1.97081e-05
1.91226e-05
1.86106e-05
1.7869e-05
1.7373e-05
1.76213e-05
1.80464e-05
1.82198e-05
1.61671e-05
1.58695e-05
1.55525e-05
1.52489e-05
1.47662e-05
1.46111e-05
1.49273e-05
1.52204e-05
1.54898e-05
1.57342e-05
1.60974e-05
1.5711e-05
1.53832e-05
1.50381e-05
1.45364e-05
1.44139e-05
1.46141e-05
1.48065e-05
1.50794e-05
1.54634e-05
1.60226e-05
1.559e-05
1.5206e-05
1.48053e-05
1.43135e-05
1.42295e-05
1.43765e-05
1.4538e-05
1.47613e-05
1.51385e-05
1.59365e-05
1.54383e-05
1.49842e-05
1.45345e-05
1.41313e-05
1.40303e-05
1.41301e-05
1.42888e-05
1.44905e-05
1.47477e-05
1.57893e-05
1.53464e-05
1.4907e-05
1.4399e-05
1.40211e-05
1.38912e-05
1.38909e-05
1.40007e-05
1.41837e-05
1.43668e-05
1.59864e-05
1.54972e-05
1.48927e-05
1.43267e-05
1.40266e-05
1.39344e-05
1.39545e-05
1.40819e-05
1.4314e-05
1.45319e-05
1.58421e-05
1.53834e-05
1.47358e-05
1.43274e-05
1.41558e-05
1.41411e-05
1.41786e-05
1.44023e-05
1.46326e-05
1.4871e-05
1.56061e-05
1.52244e-05
1.47839e-05
1.45907e-05
1.46021e-05
1.45756e-05
1.44953e-05
1.4691e-05
1.48824e-05
1.51316e-05
1.64777e-05
1.58368e-05
1.53938e-05
1.52652e-05
1.51895e-05
1.49663e-05
1.48026e-05
1.49913e-05
1.51567e-05
1.54065e-05
1.72407e-05
1.6701e-05
1.62386e-05
1.5923e-05
1.57358e-05
1.54261e-05
1.50699e-05
1.53348e-05
1.55171e-05
1.56812e-05
1.53587e-05
1.50838e-05
1.48764e-05
1.46825e-05
1.40658e-05
1.38165e-05
1.42661e-05
1.44948e-05
1.46382e-05
1.48131e-05
1.53782e-05
1.49686e-05
1.47206e-05
1.45167e-05
1.38524e-05
1.36458e-05
1.3993e-05
1.41167e-05
1.42915e-05
1.46198e-05
1.54591e-05
1.49718e-05
1.46049e-05
1.42268e-05
1.36012e-05
1.34795e-05
1.37757e-05
1.39117e-05
1.40802e-05
1.44347e-05
1.51707e-05
1.47464e-05
1.43099e-05
1.38443e-05
1.34484e-05
1.33091e-05
1.3388e-05
1.36691e-05
1.38539e-05
1.41164e-05
1.50748e-05
1.46147e-05
1.41599e-05
1.37135e-05
1.34205e-05
1.32883e-05
1.32492e-05
1.32987e-05
1.34315e-05
1.35938e-05
1.51396e-05
1.46266e-05
1.41239e-05
1.37117e-05
1.34758e-05
1.33791e-05
1.33461e-05
1.34073e-05
1.36188e-05
1.37971e-05
1.51403e-05
1.46266e-05
1.41552e-05
1.3806e-05
1.36571e-05
1.3598e-05
1.35801e-05
1.38469e-05
1.40892e-05
1.42896e-05
1.54464e-05
1.48189e-05
1.43569e-05
1.4106e-05
1.40315e-05
1.39383e-05
1.38669e-05
1.41526e-05
1.42492e-05
1.4461e-05
1.61256e-05
1.55449e-05
1.50642e-05
1.47647e-05
1.45696e-05
1.43412e-05
1.41112e-05
1.44177e-05
1.44649e-05
1.46161e-05
1.64704e-05
1.60117e-05
1.56539e-05
1.52978e-05
1.49846e-05
1.46832e-05
1.43536e-05
1.47503e-05
1.48214e-05
1.48591e-05
0.00334239
0.0025311
0.00346052
0.00367284
0.000890387
0.000891279
0.00367662
0.0034651
0.00253518
0.00334436
0.0025333
0.000754677
0.000518384
0.000455999
0.000109786
0.000109883
0.00045647
0.00051913
0.000756374
0.00254226
0.00346413
0.000518836
8.98809e-05
4.06069e-05
9.09355e-06
9.10146e-06
4.06584e-05
9.01855e-05
0.000521275
0.00347718
0.00367627
0.00045643
4.06413e-05
4.08145e-06
6.83003e-07
6.83702e-07
4.09855e-06
4.09057e-05
0.000458854
0.00368902
0.00089118
0.000109897
9.10332e-06
6.83419e-07
2.11005e-07
2.11109e-07
6.87361e-07
9.17411e-06
0.000110641
0.000895608
0.00089193
0.000110015
9.11718e-06
6.84833e-07
2.11147e-07
2.11221e-07
6.87878e-07
9.17517e-06
0.00011064
0.000895604
0.00368465
0.000458231
4.08701e-05
4.11266e-06
6.87776e-07
6.87905e-07
4.11591e-06
4.09315e-05
0.000458842
0.00368781
0.00347684
0.000521583
9.0502e-05
4.09278e-05
9.17423e-06
9.17492e-06
4.0929e-05
9.05021e-05
0.000521526
0.00347646
0.00254352
0.000758406
0.00052159
0.000458802
0.000110612
0.000110616
0.00045877
0.000521485
0.000758209
0.00254271
0.00335398
0.00254307
0.00347665
0.00368748
0.00089523
0.000895374
0.00368768
0.00347613
0.0025425
0.0033531
0.000648951
0.000427323
0.000569184
0.000593085
0.000137628
0.000137759
0.000593674
0.000569926
0.000428016
0.000649552
0.000427606
0.000117675
7.92998e-05
6.91311e-05
1.60693e-05
1.60829e-05
6.92003e-05
7.94104e-05