/*--------------------------------*- C++ -*----------------------------------*\
  =========                 |
  \\      /  F ield         | OpenFOAM: The Open Source CFD Toolbox
   \\    /   O peration     | Website:  https://openfoam.org
    \\  /    A nd           | Version:  9
     \\/     M anipulation  |
\*---------------------------------------------------------------------------*/
FoamFile
{
    format      ascii;
    class       volScalarField;
    location    "1";
    object      f3.gas;
}
// * * * * * * * * * * * * * * * * * * * * * * * * * * * * * * * * * * * * * //

dimensions      [0 0 0 0 0 0 0];

internalField   nonuniform List<scalar> 
137980
(
0.0104722
0.0137512
0.00842822
0.0079433
0.0126231
0.0118991
0.00992777
0.0097135
0.0105165
0.011405
0.015034
0.0168099
0.0145943
0.0158193
0.0253758
0.020218
0.0176558
0.0187359
0.0183316
0.0131598
0.00781682
0.0122694
0.0218216
0.0264513
0.0267383
0.023187
0.0205363
0.0177273
0.0118174
0.0112796
0.0071367
0.0109433
0.01789
0.0201552
0.0224954
0.0212265
0.0173037
0.0143135
0.00951422
0.00771929
0.00763637
0.0110942
0.0152302
0.0178407
0.0190362
0.0180852
0.0173142
0.0158568
0.0129886
0.00937049
0.00641906
0.00798649
0.0121122
0.0154171
0.014997
0.0164962
0.0175897
0.0167047
0.0130214
0.0107974
0.00520609
0.00874086
0.0156032
0.0136568
0.0135986
0.0154362
0.0176368
0.0161102
0.0128051
0.0112064
0.00733012
0.0129151
0.0128946
0.00970098
0.0115569
0.0125514
0.0203849
0.0206368
0.0141122
0.0109062
0.00784922
0.0112915
0.00870526
0.00735584
0.00955616
0.00794251
0.00974119
0.0218658
0.0171341
0.00872738
0.00927813
0.0103505
0.00664099
0.00491549
0.00680736
0.0060495
0.00467699
0.00758302
0.0142915
0.00904978
0.00245191
0.00369378
0.00363224
0.00318246
0.00335256
0.00332477
0.00305803
0.00289379
0.00278744
0.00252724
0.00345749
0.00385017
0.0045125
0.00477945
0.00484499
0.00415753
0.00393735
0.00386698
0.00326633
0.00274892
0.00276745
0.00310124
0.00457833
0.00538252
0.00518539
0.00469572
0.00440608
0.00397589
0.00347559
0.00332007
0.0027095
0.00291634
0.00362316
0.00450978
0.00466862
0.00450999
0.00397106
0.00358118
0.00318727
0.00302098
0.00269787
0.0028833
0.00340479
0.00423026
0.00430734
0.00415913
0.00388366
0.00356856
0.00321757
0.00288097
0.00260407
0.0027754
0.00328374
0.00398488
0.00386514
0.0039612
0.00373868
0.00359168
0.00328462
0.00296686
0.0026825
0.00296878
0.00398643
0.00364888
0.00360335
0.00373985
0.00395651
0.0035993
0.00314511
0.00296769
0.00326041
0.00358041
0.00363721
0.00330081
0.00337613
0.00317816
0.00390934
0.00412964
0.00360387
0.00300077
0.00326446
0.00339272
0.00309118
0.00296949
0.00306208
0.0029628
0.00275405
0.00355767
0.00358693
0.00315258
0.00287935
0.00274342
0.00261508
0.00264521
0.00276151
0.0028161
0.00258476
0.00281167
0.00321031
0.00300799
0.00194706
0.00198859
0.00213699
0.0021617
0.00214721
0.00208896
0.00206018
0.00206906
0.00215131
0.00210677
0.00206845
0.00224714
0.00229135
0.00232425
0.00232462
0.00229315
0.00226736
0.00226558
0.00225577
0.0022483
0.00229633
0.00231976
0.00234682
0.00238738
0.00237413
0.00232611
0.00230036
0.0022859
0.00225801
0.0021995
0.00229544
0.00234003
0.00236219
0.00240721
0.00234863
0.00232191
0.00228171
0.00225622
0.00224961
0.00218861
0.00238757
0.0023562
0.00234408
0.00237197
0.00234122
0.00231839
0.00227964
0.00226795
0.0022798
0.00222437
0.00229785
0.00234252
0.00237583
0.00238231
0.00233516
0.00230697
0.00229468
0.00229368
0.00228771
0.00228078
0.00230543
0.00239393
0.00243489
0.00235136
0.00225531
0.00226052
0.0022978
0.00229572
0.00226841
0.00226842
0.00237326
0.00244556
0.00237914
0.00221177
0.00220905
0.00223586
0.00228685
0.00227523
0.00220997
0.00221391
0.0023968
0.00233519
0.00209414
0.00215833
0.00218722
0.00225585
0.00224394
0.00219664
0.00204382
0.00206308
0.00210387
0.00196529
0.0020091
0.00205685
0.00210108
0.00223019
0.00218196
0.00201173
0.00184907
0.00183937
0.00177341
0.00177598
0.00178866
0.0018388
0.00186234
0.00186324
0.00192125
0.00209008
0.00214398
0.00214803
0.00182118
0.00180319
0.0017943
0.00180694
0.00180204
0.00195123
0.00210548
0.0021647
0.00216087
0.0021502
0.00181751
0.00178647
0.001779
0.00180285
0.00210768
0.00220158
0.00220066
0.00218647
0.002159
0.00214629
0.00184331
0.00182595
0.001886
0.00219621
0.00223561
0.00222796
0.00220308
0.00214247
0.00209614
0.00209754
0.00204579
0.00207699
0.00220569
0.00225467
0.00224442
0.00220761
0.00211884
0.00204908
0.00203931
0.0020515
0.00215107
0.00219233
0.0022845
0.00227268
0.00222307
0.00210381
0.00202198
0.0020131
0.00202399
0.00204879
0.00227982
0.00236366
0.00235001
0.00225918
0.00206743
0.00198818
0.00198769
0.00200321
0.00203696
0.00201539
0.00246286
0.00244497
0.00229438
0.00199832
0.00195643
0.0019602
0.00198414
0.00206099
0.0020344
0.00183643
0.00247944
0.00230401
0.00192773
0.00192769
0.00195337
0.00199118
0.00209212
0.00210619
0.00191124
0.00178102
0.00228615
0.00176437
0.00188764
0.00196952
0.0020218
0.0020762
0.00215086
0.00198881
0.00191974
0.00184109
0.0018425
0.00180271
0.00173422
0.00174367
0.00178427
0.00187553
0.0019565
0.00202239
0.00202724
0.00204027
0.00193317
0.00191125
0.00188514
0.00192026
0.0019511
0.00201477
0.00207135
0.00205838
0.00202196
0.00201746
0.00197577
0.00194703
0.0019218
0.00190648
0.00205707
0.00211498
0.00210327
0.00206227
0.00197785
0.00196842
0.0020307
0.00188845
0.00192664
0.00205416
0.0021331
0.00212968
0.00209672
0.00199517
0.00194449
0.0019348
0.00219789
0.00202932
0.00201076
0.00210022
0.00215605
0.00213604
0.00205302
0.00196073
0.00193413
0.00192277
0.00231242
0.0021737
0.00219703
0.00222829
0.00219265
0.00210247
0.00197013
0.00193633
0.00192752
0.00189624
0.00246797
0.00240418
0.00236336
0.00225927
0.00206555
0.00193841
0.00191249
0.00192757
0.00191594
0.00181052
0.00249201
0.00244963
0.00226293
0.00189111
0.00186832
0.00187466
0.00189869
0.0019428
0.00187871
0.00170641
0.00243818
0.00216582
0.00167412
0.00173711
0.00185261
0.00192212
0.00195914
0.00192831
0.0018121
0.00167145
0.00232312
0.00142479
0.00152541
0.0018
0.00192621
0.00195344
0.00194162
0.00189279
0.00177781
0.00165841
0.00110592
0.00113399
0.00118961
0.00134726
0.00171654
0.00188984
0.00194342
0.00198464
0.00198782
0.00198113
0.00111266
0.00117218
0.00133247
0.00170353
0.00189733
0.00196484
0.00200127
0.0020114
0.00199692
0.00195541
0.00115938
0.00124113
0.00151956
0.00181611
0.00194414
0.0020186
0.0020421
0.00203627
0.00201382
0.00194119
0.00122776
0.00135803
0.00165168
0.00187165
0.001999
0.00204993
0.00206801
0.00206568
0.00203248
0.00193801
0.00149701
0.00169355
0.0018938
0.0020449
0.00212141
0.00213365
0.00212287
0.0020938
0.00202853
0.00187944
0.00224158
0.00224988
0.002249
0.0022446
0.00222905
0.00218274
0.00213474
0.00207554
0.00193227
0.00175517
0.00236075
0.00233816
0.00230703
0.00227574
0.00222231
0.00214198
0.00207098
0.00193369
0.00171796
0.0015757
0.00224053
0.00222266
0.00217658
0.0021056
0.00198575
0.00190952
0.00177966
0.0016065
0.00151039
0.00145751
0.00198957
0.00195059
0.00184134
0.00170522
0.00163399
0.00155387
0.00148355
0.00143943
0.00141848
0.0014125
0.00147846
0.00126495
0.00124534
0.00129663
0.00137917
0.00134742
0.00133361
0.00135561
0.0013837
0.00139923
0.00122614
0.00121957
0.00120037
0.00112823
0.0011284
0.00124494
0.00164633
0.00188521
0.00190237
0.00190002
0.00114339
0.00118407
0.00117474
0.00112209
0.00113183
0.00126615
0.00162881
0.00184935
0.00188823
0.00188191
0.000916154
0.00103039
0.00103777
0.00104008
0.00110035
0.00132942
0.00163345
0.00181038
0.00184518
0.0018305
0.000894031
0.000920242
0.000940814
0.000985477
0.00111447
0.0013388
0.00152543
0.00166443
0.00172314
0.00172808
0.000903543
0.000907731
0.000922549
0.000956657
0.00103782
0.00121222
0.00139605
0.00152979
0.00159539
0.00161823
0.0010541
0.00104412
0.00105965
0.00110792
0.00123657
0.00138284
0.00148156
0.00153587
0.00156428
0.00157349
0.00152633
0.00145734
0.00146182
0.00148752
0.00153423
0.00155732
0.0015571
0.00155689
0.00155059
0.00154023
0.00173007
0.00167815
0.00165617
0.00164933
0.00162983
0.00161218
0.00157463
0.00154951
0.00148449
0.00146071
0.00172694
0.0016995
0.00167225
0.00162014
0.00154517
0.00148219
0.00141234
0.00137033
0.00129859
0.00129411
0.00158281
0.00155249
0.00142236
0.00126815
0.00119668
0.00118064
0.0011937
0.00117612
0.00113904
0.0011237
0.00094924
0.000905042
0.000786135
0.000795188
0.000862345
0.00116437
0.00153094
0.00160417
0.00159388
0.00164329
0.000923191
0.000907838
0.000839154
0.000815729
0.000833032
0.0010213
0.00143621
0.00157497
0.0015338
0.00157046
0.000834198
0.000885063
0.000860951
0.000816843
0.000823549
0.000976093
0.00135899
0.00148858
0.00148646
0.00143308
0.000778701
0.000825452
0.000822122
0.000791846
0.000799731
0.000962913
0.00127179
0.00134162
0.00131347
0.00122285
0.00067886
0.00071331
0.000723596
0.000730787
0.000776585
0.000983398
0.00114676
0.00114412
0.00108702
0.00110063
0.000725827
0.000689237
0.000690271
0.000704069
0.000758027
0.000902399
0.00095932
0.000959106
0.00100418
0.00108979
0.00089841
0.0007606
0.000717359
0.000720368
0.000742796
0.000773615
0.000828304
0.000881979
0.00100481
0.00109439
0.00113633
0.000992517
0.00086473
0.00079898
0.000793424
0.000801824
0.000823554
0.000877138
0.00101692
0.00108353
0.00124518
0.0011727
0.00109724
0.00102611
0.000971431
0.000939178
0.000943308
0.000967619
0.00103796
0.00107696
0.00126216
0.00123673
0.00120691
0.00116541
0.00113201
0.00109102
0.00106206
0.0010632
0.00107514
0.00107752
0.000636492
0.000577965
0.000551353
0.000563665
0.000616387
0.000685342
0.000731812
0.000752215
0.000901061
0.000997356
0.0006622
0.000616243
0.00055241
0.000556155
0.000599191
0.000647266
0.000672299
0.000655591
0.000665568
0.000774056
0.000652595
0.000619004
0.000559427
0.000556561
0.000591808
0.000621859
0.000628351
0.000604392
0.000602261
0.000654451
0.000625145
0.000589202
0.000553173
0.000553994
0.000572479
0.000576528
0.000556756
0.000544588
0.000575637
0.000619318
0.000589341
0.000565458
0.000552715
0.000554102
0.000552707
0.000538086
0.000529768
0.000532171
0.000584593
0.000632229
0.000624513
0.000595408
0.00057805
0.000567345
0.00055295
0.000536043
0.000532789
0.000559979
0.000636692
0.000703527
0.00073297
0.000669724
0.000641652
0.000622952
0.000601228
0.000572426
0.00056347
0.000600984
0.000686404
0.00078257
0.000912693
0.000812147
0.000724098
0.000680941
0.000663958
0.000626074
0.000599536
0.000645501
0.000736852
0.000822661
0.00100574
0.000947879
0.00086901
0.000779769
0.00072147
0.000688535
0.000631422
0.000693175
0.000759262
0.000837044
0.00106647
0.00102045
0.000979977
0.000911421
0.000813254
0.000729802
0.00068303
0.000722667
0.000761261
0.000809752
0.00069316
0.000564842
0.000514771
0.000460636
0.000455384
0.000463502
0.000455235
0.000436217
0.000442728
0.000466214
0.000674754
0.0005731
0.000487784
0.000444961
0.000449419
0.000459211
0.000452419
0.000430001
0.000435349
0.000459569
0.000628886
0.000582101
0.000493034
0.000455669
0.000455829
0.0004581
0.000448008
0.000427935
0.000433519
0.000457528
0.000573441
0.000550214
0.000492477
0.000473187
0.000465628
0.00045978
0.000442695
0.000430777
0.000439576
0.000465997
0.00058786
0.000549513
0.000509645
0.00049826
0.000483301
0.000468946
0.0004464
0.000441779
0.000451692
0.000479819
0.000766538
0.00065436
0.000587299
0.000553986
0.00052309
0.000499301
0.000467879
0.000458294
0.000466789
0.000502179
0.000910202
0.000841803
0.000763565
0.000694784
0.000633342
0.000580367
0.000519111
0.000484141
0.000487391
0.000528965
0.000961735
0.000924249
0.000877003
0.000808204
0.000737826
0.000681336
0.000603111
0.000528355
0.000515872
0.000555021
0.0010399
0.000996172
0.000957947
0.000921298
0.00084809
0.000789631
0.000711499
0.000592726
0.000541407
0.000571277
0.00104189
0.00100357
0.000959886
0.000933081
0.000882683
0.000831155
0.000785412
0.000680841
0.000584582
0.000581907
0.000701909
0.000648637
0.000559334
0.000463661
0.000409798
0.000391915
0.000388167
0.000390557
0.000399838
0.000418757
0.000612819
0.000542493
0.000453964
0.000405117
0.000384852
0.00037812
0.000377985
0.000382398
0.00039413
0.000418569
0.000517884
0.000461824
0.000415358
0.000390528
0.000379874
0.00037756
0.00037865
0.000387444
0.000402662
0.000427338
0.000504105
0.000454334
0.000421422
0.00040855
0.000401714
0.000397754
0.000399863
0.000410416
0.000421938
0.000446137
0.000619977
0.000542429
0.000497114
0.000470876
0.00045408
0.000439613
0.000438176
0.000441272
0.000448586
0.000464819
0.000777511
0.00068637
0.000614897
0.000568533
0.000535848
0.000509065
0.00049139
0.000482075
0.000481985
0.000489271
0.000902016
0.000816203
0.000733975
0.000663987
0.000616141
0.000575296
0.000550362
0.000527182
0.000515881
0.000520854
0.000962665
0.000884241
0.000809318
0.000737653
0.00067162
0.000610857
0.000579773
0.000556125
0.000543849
0.000553191
0.000938399
0.00086811
0.000797675
0.000731346
0.000672789
0.000614389
0.000588075
0.000568051
0.000563712
0.00058827
0.000842029
0.000788036
0.000738612
0.00069296
0.000649553
0.000613233
0.000597269
0.000579784
0.00058274
0.000622741
0.000687331
0.000614196
0.000529829
0.000464583
0.000428222
0.000403732
0.000387983
0.000386695
0.000392791
0.000408254
0.000541006
0.000490906
0.000438668
0.000402308
0.000380707
0.00036532
0.000357738
0.000360021
0.000370575
0.000399155
0.000488507
0.000439338
0.000404437
0.000382715
0.000368691
0.000357217
0.000349914
0.000352485
0.000364637
0.000401043
0.000483597
0.000438997
0.000407705
0.000392069
0.0003835
0.00037187
0.000352926
0.000352885
0.000366297
0.000414934
0.000531189
0.000482818
0.000451286
0.000429225
0.000413729
0.000393829
0.000369994
0.000363713
0.000377328
0.000433413
0.000595591
0.00054566
0.000502539
0.000467959
0.000442922
0.000419551
0.000394957
0.00038128
0.000388318
0.000440256
0.000654015
0.000591763
0.000547025
0.00051041
0.000476708
0.00044979
0.000424728
0.000405974
0.000408081
0.000445304
0.000675764
0.000612308
0.000579109
0.000547726
0.00051421
0.000487468
0.000462906
0.000440158
0.000439851
0.000469522
0.000671667
0.000634215
0.00061397
0.000583684
0.000555209
0.00053556
0.000512282
0.00048489
0.000485759
0.000533497
0.000678076
0.000680391
0.000654487
0.000629772
0.000617212
0.00061009
0.00059032
0.000542201
0.000536037
0.0005641
0.000771019
0.000734854
0.000660632
0.000613937
0.000563368
0.000513389
0.000469992
0.000444104
0.000444066
0.000464961
0.000585214
0.00057399
0.000537533
0.000498586
0.000452718
0.000408941
0.000385073
0.000384057
0.000399183
0.000461457
0.000515265
0.000471566
0.000435802
0.000402087
0.000371409
0.000351158
0.000348752
0.000354572
0.000381983
0.000472706
0.000503328
0.000449619
0.000405017
0.00037354
0.000350406
0.00033765
0.000337973
0.000345296
0.000375405
0.000481511
0.000527641
0.000472091
0.000421067
0.000385338
0.00036042
0.000344907
0.000342723
0.000347567
0.000373321
0.000468932
0.000579093
0.000526954
0.000471724
0.000430593
0.000400739
0.000379662
0.00036712
0.0003665
0.000379162
0.000443541
0.000638096
0.000584839
0.000527052
0.000484503
0.000452006
0.000428252
0.000409573
0.000393918
0.000396725
0.00043148
0.000702369
0.000640516
0.000582374
0.000543141
0.000513605
0.000490371
0.000472876
0.000440073
0.000428946
0.000443544
0.000762217
0.000684905
0.000637566
0.000607911
0.000587045
0.000572063
0.000555924
0.000517894
0.000479927
0.000475899
0.000803703
0.000728236
0.000698103
0.000682039
0.000673911
0.000676368
0.00066724
0.000635131
0.000561596
0.000530102
0.000941486
0.000841036
0.000765949
0.000706475
0.000620921
0.000533415
0.000498742
0.000501663
0.000543693
0.00068766
0.00075975
0.000683076
0.000621857
0.00056319
0.000493023
0.000447709
0.000441268
0.000455417
0.00053381
0.000731023
0.000684055
0.000612814
0.000543658
0.000479066
0.000430528
0.000406852
0.000408072
0.000427374
0.000509524
0.000694528
0.000618756
0.000540114
0.000479069
0.000436065
0.000405786
0.000391598
0.00039483
0.000412854
0.000475998
0.000627253
0.000593302
0.000519121
0.000468538
0.000432763
0.000407849
0.000394564
0.00039606
0.000409048
0.000452951
0.000568769
0.000617735
0.000552401
0.000507064
0.000474101
0.00045179
0.000434216
0.000428155
0.000431243
0.000453132
0.000530106
0.000681678
0.000618391
0.000573655
0.000541445
0.000518924
0.0005027
0.000487942
0.00047512
0.000480373
0.000528116
0.000762394
0.000692402
0.000650698
0.000623729
0.000606915
0.000597311
0.000582094
0.000549477
0.000529233
0.000549709
0.000849764
0.000773772
0.000739579
0.000720229
0.000714797
0.000717199
0.00070749
0.000672597
0.00060641
0.000602293
0.000935551
0.000859955
0.000834243
0.000826128
0.000842837
0.00087103
0.000870201
0.000833729
0.000726626
0.000685543
0.00129373
0.0011324
0.00103323
0.000916649
0.000795293
0.000740411
0.000740221
0.00076733
0.000873182
0.0011116
0.00106026
0.000943975
0.0008412
0.000739692
0.000668256
0.000644517
0.000654134
0.00071069
0.000879274
0.00115264
0.00102747
0.000870719
0.000740431
0.000652768
0.000600424
0.000590083
0.00060917
0.000677133
0.000848805
0.00110652
0.000982543
0.000803876
0.000691865
0.000619661
0.000577821
0.000572
0.000593183
0.000658284
0.000819909
0.00104844
0.000922072
0.000778346
0.000682513
0.000617949
0.000582355
0.000577653
0.000594623
0.000651047
0.000791966
0.00100749
0.000907222
0.000795201
0.000720127
0.000667716
0.000638878
0.000630827
0.000638023
0.000666976
0.000773711
0.000984872
0.000959714
0.000874169
0.000803294
0.000757251
0.000734381
0.000725475
0.000723499
0.00072482
0.000782474
0.000974258
0.00106412
0.00097642
0.000913067
0.000883322
0.000872823
0.000870581
0.000861599
0.000830514
0.000838854
0.000975958
0.00119884
0.00110311
0.00105628
0.00104137
0.00104475
0.00105639
0.00105417
0.00101216
0.000954543
0.00102514
0.00135444
0.00125257
0.00122065
0.0012166
0.00123779
0.00127819
0.00130838
0.00128725
0.00119092
0.00119694
0.00160408
0.00140398
0.00124413
0.00110463
0.00103313
0.00103003
0.00106715
0.00117245
0.0013514
0.00162142
0.00141803
0.00124704
0.00108354
0.000976112
0.000925282
0.000928807
0.000989354
0.00112642
0.00134196
0.00163401
0.00139149
0.00116024
0.000996777
0.000908251
0.000870142
0.000878699
0.00094727
0.0010876
0.00130331
0.00157194
0.00132578
0.00109768
0.000964542
0.000885779
0.000852224
0.000861627
0.000926668
0.00105691
0.00126008
0.0014942
0.00128199
0.00108083
0.000964546
0.000890766
0.000859698
0.000864728
0.000920928
0.00103942
0.0012252
0.00145093
0.00127961
0.00112344
0.00103232
0.000956316
0.000917086
0.000911035
0.000944565
0.00103577
0.00121165
0.00143782
0.00135109
0.00123936
0.00114458
0.00106174
0.00101531
0.00100418
0.00101987
0.00107234
0.00121999
0.0014523
0.00149114
0.00138912
0.00128802
0.00120902
0.00116789
0.0011587
0.00117257
0.0011945
0.00127258
0.00147614
0.00168428
0.00157045
0.00146531
0.0013955
0.00136849
0.00137177
0.00140752
0.0014402
0.00146558
0.00158074
0.0019349
0.00178379
0.0016763
0.00161995
0.00160164
0.00162493
0.00169387
0.00177543
0.00183564
0.0019005
0.00165757
0.00145365
0.00127432
0.00116423
0.0011291
0.00114839
0.00122819
0.00136784
0.0015593
0.00181156
0.00152158
0.00131462
0.00114009
0.00105366
0.00102723
0.00105158
0.00114133
0.00128638
0.00147831
0.00172901
0.0014616
0.00121085
0.00106129
0.000991324
0.000970877
0.000993879
0.0010822
0.00122609
0.00141417
0.00165191
0.00138663
0.00116148
0.00103485
0.000969382
0.000948191
0.000966184
0.00104651
0.00118153
0.00136245
0.00157688
0.00135877
0.0011521
0.00103946
0.000970945
0.000945787
0.000958643
0.00103197
0.00115815
0.00133183
0.00154408
0.00137741
0.00120941
0.0011209
0.00103153
0.000987613
0.00098329
0.00103936
0.00115481
0.00132613
0.00154241
0.00146573
0.00133627
0.00124536
0.00113695
0.00107073
0.00105775
0.00109588
0.00119049
0.00134673
0.00157054
0.00161024
0.00150506
0.00139785
0.00127739
0.00120998
0.00119692
0.00123594
0.00131225
0.00142459
0.00161681
0.00181867
0.00170667
0.00157187
0.001454
0.00140648
0.00140568
0.00146948
0.00156128
0.00165078
0.00177274
0.00209972
0.00194038
0.00177873
0.00168014
0.00164467
0.00165929
0.00174902
0.00188059
0.00200597
0.00209664
0.000886115
0.000839254
0.000791708
0.000765395
0.000758419
0.000758925
0.000765102
0.000794536
0.000852287
0.000926416
0.00084975
0.000778695
0.000733519
0.000717426
0.000717559
0.000720023
0.00072726
0.000761123
0.000813009
0.000880862
0.000829886
0.000745148
0.000708892
0.000694082
0.000690048
0.000692808
0.000709796
0.000745238
0.000792766
0.000848334
0.000805976
0.00073119
0.000699772
0.000685241
0.000680238
0.000683458
0.000704049
0.000736644
0.000776327
0.000813812
0.000797968
0.000728573
0.000701933
0.000686838
0.000680233
0.000682706
0.000702272
0.000728435
0.000760852
0.000798415
0.000804561
0.000749199
0.000733499
0.000709622
0.000690537
0.000688462
0.000702921
0.000726388
0.0007599
0.000800115
0.00083884
0.000791273
0.000787792
0.000754474
0.000710823
0.000702289
0.000710055
0.000733656
0.000768621
0.000817966
0.000906843
0.000844389
0.000854649
0.000805394
0.000743174
0.000725895
0.00073192
0.000757196
0.000790118
0.000843438
0.000993113
0.000928729
0.000927083
0.00084962
0.000786173
0.000769412
0.000778147
0.000806369
0.000834763
0.000877982
0.00108601
0.00104477
0.000964474
0.000888613
0.000837256
0.000820354
0.000821729
0.000842135
0.00087649
0.000911798
0.000448207
0.000448162
0.000449835
0.000448063
0.000428839
0.000409228
0.000404267
0.000413833
0.000422579
0.000431848
0.000437308
0.000423568
0.000415462
0.000416919
0.000406831
0.000391549
0.000391438
0.000401888
0.000412572
0.000424989
0.000431833
0.000407633
0.000398142
0.000393258
0.000384188
0.000379238
0.000382904
0.000394424
0.000405319
0.000412362
0.000422418
0.00039673
0.00038558
0.000377386
0.00037126
0.000369788
0.000373316
0.000382487
0.000391843
0.000396814
0.000416608
0.000392601
0.000381687
0.000374063
0.000369741
0.000368208
0.000368487
0.00037208
0.000378746
0.000387021
0.000415179
0.000393299
0.000384859
0.000377602
0.000373449
0.000371685
0.000370893
0.00037287
0.000379805
0.000389122
0.000422717
0.000405132
0.000401443
0.000390548
0.000381902
0.000380521
0.000380853
0.000384186
0.000391524
0.000400674
0.00044178
0.000421719
0.000426066
0.000412168
0.000393512
0.000387868
0.00039049
0.000395044
0.00040204
0.000410164
0.000473409
0.000447391
0.000445576
0.000426246
0.000407719
0.000395852
0.000398332
0.000404384
0.000409598
0.000416331
0.000502824
0.00048487
0.000452135
0.000432006
0.000417179
0.000405404
0.000407604
0.000413071
0.00041706
0.000423092
0.000281038
0.00028439
0.000290493
0.000291325
0.000265136
0.000257093
0.000259527
0.000262734
0.000263889
0.000267003
0.000281227
0.00027858
0.000278394
0.000281123
0.000257329
0.000249368
0.000251452
0.000255296
0.000258209
0.000264972
0.000284489
0.000277368
0.000273455
0.000265791
0.000246575
0.000242973
0.000246188
0.000251569
0.000256275
0.000261959
0.00027931
0.000268313
0.000262496
0.000250811
0.000240021
0.000238045
0.000240974
0.000247893
0.000253734
0.000259535
0.000267921
0.000258579
0.000252087
0.000243524
0.000238731
0.00023744
0.000237807
0.000241666
0.000247138
0.000252506
0.000264202
0.000254217
0.00024787
0.000242873
0.000240411
0.000239397
0.00023928
0.000241845
0.000245903
0.000250185
0.000265079
0.000256502
0.000252305
0.000248508
0.000246907
0.000246348
0.000246621
0.000249172
0.00025341
0.000258084
0.000272243
0.000267392
0.000265198
0.000257744
0.000254386
0.000253562
0.000253774
0.000255107
0.000257262
0.000261729
0.000284534
0.000285443
0.000281239
0.000271803
0.000261711
0.000258373
0.000258209
0.000258203
0.00025925
0.000263096
0.000306375
0.000302898
0.000287041
0.00027805
0.000273165
0.000263279
0.000263914
0.000265265
0.000265922
0.00026718
0.000209808
0.000208185
0.000208683
0.000212612
0.000204148
0.000194769
0.000197234
0.000201572
0.000202966
0.000205057
0.000209745
0.000206225
0.000206774
0.000208909
0.000196322
0.000189348
0.000190912
0.000195493
0.000197793
0.000203022
0.000210191
0.000206216
0.000205142
0.000204366
0.000190344
0.000184935
0.000186201
0.000191613
0.00019561
0.000201475
0.000211556
0.000206949
0.000204098
0.000199428
0.000186343
0.000181855
0.000182153
0.000186401
0.000192089
0.000198484
0.000213695
0.000206725
0.000201819
0.00019411
0.000184593
0.000181775
0.00018153
0.000183427
0.000187343
0.000192694
0.000210488
0.000202794
0.000195982
0.00018889
0.000184097
0.00018239
0.000182152
0.000184014
0.000187105
0.000191485
0.000203588
0.000197719
0.000192924
0.00018865
0.000186048
0.000185136
0.000184974
0.000186441
0.00018949
0.000193964
0.000205393
0.000202242
0.000198272
0.000195118
0.000192995
0.000190309
0.000189296
0.00019037
0.000194096
0.000199172
0.000216504
0.000216208
0.000210146
0.000204729
0.000199795
0.000195079
0.000193633
0.000195052
0.000197451
0.000201251
0.000234796
0.000227001
0.0002186
0.000213622
0.000209623
0.00020104
0.00019904
0.000201277
0.000202672
0.000203856
0.00017777
0.000175299
0.000172542
0.0001711
0.000167506
0.000163739
0.000165857
0.00017045
0.000172477
0.000174524
0.000176669
0.000172871
0.000170009
0.000169021
0.000164595
0.000160795
0.000161775
0.000165809
0.000168579
0.000172408
0.000176431
0.000171724
0.000168167
0.000167338
0.000162129
0.000158304
0.000158449
0.000161724
0.000165456
0.000169932
0.000175647
0.000170838
0.000168074
0.000166499
0.000160488
0.000156873
0.000156455
0.000157937
0.000160929
0.00016465
0.000175742
0.000171334
0.000169021
0.000165847
0.000159824
0.000157277
0.000156812
0.00015731
0.000159117
0.000161764
0.000177826
0.000173383
0.000169106
0.000164353
0.000159719
0.000157978
0.000157517
0.00015803
0.000159563
0.000161866
0.000177341
0.000172168
0.000167534
0.000163114
0.000160512
0.000159468
0.000159056
0.000159115
0.000160776
0.000163733
0.000175705
0.000172219
0.000168215
0.000165975
0.000164971
0.000163345
0.000161636
0.000161534
0.000164422
0.000168394
0.000182017
0.000178976
0.000175254
0.000173322
0.000171483
0.000167006
0.000164495
0.000165005
0.000168125
0.00017097
0.000194518
0.000189228
0.000184777
0.000180603
0.000178016
0.000173006
0.000167845
0.000169206
0.000172083
0.000173428
0.000162608
0.000160336
0.000157876
0.000155388
0.000152839
0.000151458
0.000152895
0.000155506
0.000157449
0.000159384
0.00016208
0.000159074
0.000156395
0.000153777
0.000151413
0.000149887
0.000150426
0.000152322
0.000154357
0.00015726
0.000161606
0.000158103
0.000154926
0.000152513
0.000150095
0.000148517
0.000148481
0.000149976
0.000151922
0.000154846
0.000160828
0.00015721
0.000154129
0.000151861
0.000149207
0.000147667
0.000147357
0.000148028
0.000149523
0.000151565
0.000160791
0.000157233
0.000154341
0.000151929
0.000149165
0.000147902
0.000147558
0.000147737
0.000148677
0.000149993
0.000162313
0.00015862
0.000155306
0.000151976
0.000149503
0.000148554
0.000148232
0.000148356
0.000149186
0.000150583
0.000162704
0.000159106
0.000155258
0.000152193
0.000150707
0.000150236
0.000149602
0.000149449
0.000150547
0.000152538
0.000161653
0.00015918
0.000155828
0.000154351
0.000154211
0.000153414
0.000151611
0.000151252
0.000152639
0.000154836
0.000168674
0.000163808
0.000160325
0.000159313
0.000158765
0.000156832
0.000153872
0.000153412
0.000154928
0.000156893
0.000172766
0.000169317
0.000166308
0.000163856
0.000162129
0.000160187
0.000156419
0.000155974
0.00015777
0.000158993
0.000160529
0.000158373
0.000156944
0.000154746
0.000151959
0.000150501
0.000151801
0.000154053
0.000155151
0.000156549
0.000160646
0.000157448
0.000155336
0.000153124
0.000150602
0.000149098
0.00014968
0.000151136
0.000152516
0.000155007
0.000160619
0.000157119
0.000154422
0.000151904
0.000149344
0.000147947
0.000148025
0.000149209
0.000150834
0.000153594
0.000160233
0.000156887
0.000153715
0.000150845
0.000148352
0.000147158
0.000146936
0.000147578
0.000148876
0.000150806
0.000160281
0.000156628
0.000153159
0.000150296
0.000148141
0.000147118
0.000146805
0.000147013
0.000147836
0.000149048
0.000160489
0.000156746
0.000153209
0.000150397
0.000148593
0.000147833
0.000147547
0.000147711
0.000148547
0.000149773
0.000160765
0.000157084
0.000153831
0.000151172
0.000149995
0.000149442
0.000149044
0.000149199
0.000150291
0.000151979
0.000162714
0.000158587
0.00015535
0.000153478
0.000152867
0.000151957
0.000150992
0.000151005
0.00015201
0.000153862
0.000167986
0.000163938
0.000160357
0.000158088
0.000156665
0.000155136
0.000153101
0.000153075
0.000153761
0.000154993
0.0001695
0.000166697
0.000164222
0.000161958
0.000159777
0.000157749
0.000155293
0.000155712
0.000156476
0.000156874
0.205166
0.208568
0.207974
0.20836
0.213727
0.213724
0.208352
0.207965
0.208554
0.205153
0.208564
0.213956
0.215849
0.216765
0.217881
0.217882
0.216761
0.21584
0.213956
0.208556
0.207967
0.215848
0.218187
0.219084
0.219501
0.219494
0.219085
0.218204
0.215858
0.20796
0.208353
0.216764
0.219085
0.219941
0.220278
0.220302
0.219965
0.219106
0.216778
0.208348
0.213725
0.217883
0.219494
0.2203
0.220642
0.220645
0.220308
0.219525
0.217899
0.213731
0.213719
0.217891
0.219523
0.220308
0.220645
0.220645
0.220308
0.219524
0.217906
0.213772
0.208351
0.216779
0.219107
0.219969
0.220308
0.220311
0.219979
0.219171
0.216909
0.208663
0.207959
0.215859
0.218206
0.219115
0.219535
0.219615
0.219235
0.218624
0.216197
0.208215
0.208551
0.213964
0.215863
0.216874
0.218015
0.218317
0.217159
0.216176
0.214258
0.208802
0.205142
0.208623
0.208042
0.208641
0.214112
0.214034
0.208608
0.208218
0.208802
0.205376
0.219341
0.220792
0.220965
0.221214
0.222451
0.22245
0.221212
0.220962
0.220788
0.219336
0.220791
0.222571
0.223341
0.223754
0.224095
0.224096
0.223753
0.223339
0.222572
0.220783
0.220963
0.223341
0.224288
0.224734
0.224939
0.224937
0.224735
0.224289
0.22334
0.220956
0.221213
0.223753
0.224734
0.225207
0.225415
0.225419
0.22521
0.224736
0.223753
0.221206
0.22245
0.224096
0.224937
0.225418
0.225637
0.225637
0.22542
0.224941
0.224096
0.222447
0.222449
0.224095
0.224941
0.22542
0.225637
0.225637
0.225419
0.22494
0.224094
0.222438
0.221207
0.223753
0.224736
0.22521
0.225419
0.225417
0.225208
0.22472
0.223714
0.220991
0.220956
0.223339
0.224288
0.224734
0.224938
0.224914
0.224697
0.224019
0.223102
0.220762
0.220782
0.222565
0.223337
0.223724
0.22406
0.223828
0.223501
0.22311
0.222342
0.220589
0.219328
0.220759
0.220928
0.221001
0.222192
0.222223
0.221013
0.220762
0.220589
0.219146
0.227569
0.228125