/*--------------------------------*- C++ -*----------------------------------*\
  =========                 |
  \\      /  F ield         | OpenFOAM: The Open Source CFD Toolbox
   \\    /   O peration     | Website:  https://openfoam.org
    \\  /    A nd           | Version:  9
     \\/     M anipulation  |
\*---------------------------------------------------------------------------*/
FoamFile
{
    format      ascii;
    class       volScalarField;
    location    "1";
    object      f4.gas;
}
// * * * * * * * * * * * * * * * * * * * * * * * * * * * * * * * * * * * * * //

dimensions      [0 0 0 0 0 0 0];

internalField   nonuniform List<scalar> 
137980
(
0.00767308
0.00929966
0.00667836
0.00627362
0.00775188
0.0076662
0.00719074
0.00733842
0.00792231
0.00839927
0.00959417
0.0106969
0.00909624
0.00893809
0.0118999
0.00946723
0.00875118
0.00981746
0.0105939
0.00941162
0.00642195
0.0077851
0.0121065
0.0130498
0.0129652
0.0120292
0.0110065
0.0102061
0.00849243
0.00837059
0.00597069
0.00685609
0.00896939
0.0103402
0.0115797
0.0122693
0.0105609
0.00873409
0.00633395
0.00583974
0.0057585
0.00666059
0.00779912
0.0091224
0.010127
0.0106533
0.0107844
0.0100244
0.00730133
0.00613493
0.00518052
0.00561664
0.00674718
0.00826394
0.00854717
0.00955382
0.0106357
0.0103845
0.00744928
0.00678206
0.00489429
0.00605685
0.00846217
0.00798594
0.00803295
0.00915879
0.0108165
0.0101315
0.0073834
0.00725647
0.00581465
0.0079419
0.0078995
0.00666523
0.00724947
0.00784472
0.0122787
0.0120253
0.00773427
0.00717811
0.00607151
0.00737937
0.00636267
0.00561229
0.00595302
0.00574087
0.00634906
0.0126327
0.00975968
0.00650474
0.00669094
0.00709552
0.0056385
0.00483996
0.00511145
0.0050757
0.00469089
0.00592995
0.00868964
0.00678155
0.00329274
0.00404627
0.00398415
0.00375113
0.0037772
0.00376842
0.00369246
0.00368295
0.00366047
0.00346595
0.00402864
0.00416609
0.00440418
0.00445068
0.00430984
0.00414452
0.00417486
0.00424907
0.00402399
0.00371014
0.00367013
0.00379596
0.00445372
0.00479183
0.00462554
0.00453509
0.00449402
0.00442393
0.00421604
0.00411479
0.00359461
0.00368449
0.00397414
0.00438128
0.00443636
0.00448414
0.00430928
0.00416823
0.00398275
0.00383107
0.00352715
0.00362628
0.00388603
0.00420166
0.00420333
0.00423852
0.00418506
0.00399706
0.00376019
0.00360678
0.00345675
0.00356425
0.00381311
0.0040958
0.00403046
0.00404032
0.00400612
0.00395077
0.0036981
0.00358768
0.00354029
0.00370504
0.00412017
0.0039725
0.00396186
0.00398482
0.00406488
0.00392608
0.00362087
0.00358789
0.00387035
0.00398711
0.00398662
0.00386754
0.00392547
0.00381712
0.00412741
0.00421083
0.00390554
0.00364215
0.00384514
0.00388329
0.00374685
0.0036912
0.00376976
0.00375843
0.00356132
0.003946
0.00394786
0.00373416
0.00355373
0.00347047
0.00340759
0.00346549
0.00360274
0.0036751
0.00349943
0.00364562
0.00374019
0.00365054
0.00281083
0.00283014
0.00294261
0.00296037
0.00293468
0.00288503
0.00286405
0.00286965
0.00291838
0.00291684
0.00289267
0.00304848
0.00307175
0.00307526
0.00305877
0.00301078
0.00299249
0.00299075
0.0029877
0.00299594
0.00310408
0.00311461
0.00311006
0.00310767
0.00308304
0.00302831
0.00300848
0.00299882
0.00299022
0.00299502
0.00311597
0.00312819
0.00311568
0.00311021
0.00304223
0.00301463
0.00298427
0.00297196
0.00299044
0.0029915
0.00317946
0.00312109
0.00306304
0.00306021
0.0030456
0.00301517
0.00298389
0.00297798
0.00300467
0.00302139
0.00306238
0.00308177
0.00310701
0.00311021
0.00306651
0.00303051
0.00301856
0.00303013
0.00305435
0.00304689
0.00307163
0.00314125
0.00317377
0.00311485
0.00303412
0.00302835
0.00305641
0.00308026
0.00306965
0.00306355
0.00315455
0.0032259
0.00316059
0.00300987
0.00300163
0.00303299
0.00309042
0.00308652
0.00304156
0.00304051
0.00319137
0.00313405
0.00291706
0.00296863
0.00298921
0.00307939
0.00307751
0.00304818
0.00291072
0.00292322
0.0029245
0.00280392
0.00285208
0.00288927
0.00293412
0.00306667
0.00303229
0.00288614
0.0027198
0.00271506
0.00262492
0.00263295
0.00267444
0.00274252
0.00277363
0.00276075
0.00277262
0.00287652
0.00291445
0.00290728
0.00265891
0.00265451
0.00267047
0.00269863
0.00268644
0.00277942
0.00288336
0.00294547
0.00293729
0.00292164
0.00265748
0.00264084
0.00264061
0.00265609
0.00289921
0.00298933
0.0029866
0.00297048
0.00293952
0.0029216
0.00267958
0.00266579
0.00271233
0.00298425
0.00302923
0.00302012
0.00299391
0.00293617
0.00289429
0.00289359
0.00285049
0.00288031
0.00299673
0.00305768
0.00304631
0.00301001
0.00292279
0.00285646
0.00284555
0.00285374
0.00297237
0.00301116
0.00309747
0.00308249
0.00303046
0.0029087
0.0028351
0.00282598
0.00283357
0.0028487
0.00311211
0.00317552
0.00315716
0.00306649
0.00288172
0.00281521
0.00280947
0.00282086
0.00284058
0.00282018
0.00326686
0.00324596
0.00309461
0.00283957
0.00280033
0.00279614
0.0028119
0.00286346
0.00283655
0.00268166
0.00328552
0.00311485
0.00277533
0.00278269
0.00280595
0.00282688
0.00289489
0.00290073
0.00275074
0.00264082
0.00308328
0.00261568
0.00274852
0.00282934
0.00286737
0.00288586
0.00295606
0.00281525
0.00277092
0.00270198
0.00264817
0.00259399
0.00252274
0.00253192
0.00257206
0.0026577
0.00274185
0.00279464
0.00279497
0.00279953
0.00274595
0.00270505
0.00267298
0.0027003
0.00272683
0.00278807
0.00283489
0.00282049
0.00278849
0.0027846
0.0027908
0.00272822
0.00270159
0.00269502
0.00282917
0.00287191
0.00286053
0.00281791
0.00274431
0.00273533
0.00284389
0.00268467
0.00271288
0.00282388
0.00288807
0.0028813
0.00284743
0.00275556
0.00271321
0.00271059
0.00300084
0.00281184
0.00279035
0.00286093
0.00290501
0.00288551
0.00281062
0.00272893
0.00270936
0.00270616
0.00309437
0.0029414
0.00295643
0.00297838
0.00294551
0.00286716
0.00274881
0.00271533
0.00271802
0.00270307
0.0032328
0.00315971
0.00311627
0.00300945
0.00284586
0.00273188
0.00270063
0.00271604
0.00272214
0.00265461
0.00325368
0.00320764
0.00302982
0.00269616
0.00268434
0.00267845
0.00269014
0.00274799
0.00271693
0.00257041
0.00320946
0.0029414
0.00249954
0.00256602
0.00267563
0.00270417
0.00276804
0.0027553
0.00268885
0.00253801
0.00310502
0.00223635
0.00236196
0.00264057
0.00275579
0.00278292
0.00277856
0.00274917
0.0026512
0.00252572
0.0018353
0.00186724
0.00192684
0.00209196
0.00244987
0.00262843
0.0027013
0.00273764
0.00273554
0.00272668
0.00184909
0.00191425
0.00209669
0.00244959
0.0026368
0.00271494
0.00275011
0.00275223
0.00273656
0.00269867
0.00190647
0.00199587
0.00228263
0.00256019
0.00268418
0.00275499
0.00276939
0.00276114
0.00273484
0.00266806
0.00198219
0.00212201
0.00240681
0.00261145
0.00273073
0.00277214
0.00277942
0.00277456
0.00274337
0.00266238
0.00226459
0.00245607
0.00263642
0.0027662
0.00283012
0.0028378
0.0028284
0.00280157
0.00274461
0.00263187
0.00297328
0.00297747
0.00297175
0.00296219
0.00294113
0.00289056
0.00284342
0.00279653
0.00268216
0.00253807
0.00310022
0.00307045
0.00303339
0.00299818
0.00295106
0.0028773
0.00281677
0.00270631
0.00251471
0.00237805
0.00301544
0.00299235
0.00294001
0.0028798
0.00277346
0.00269385
0.00259154
0.0024112
0.00230957
0.00225638
0.00278661
0.00274879
0.00264403
0.00250545
0.00244136
0.00236046
0.00227433
0.00223321
0.00221607
0.00221427
0.00225449
0.0020308
0.00200641
0.0020643
0.00215791
0.00213375
0.00212482
0.00215129
0.00218218
0.00220304
0.00189861
0.00189565
0.00187216
0.0017859
0.00178857
0.00191848
0.00234749
0.00260522
0.00262326
0.00262614
0.00179403
0.00184386
0.00183324
0.00177734
0.00179044
0.00194259
0.00233051
0.00255393
0.0025929
0.00259507
0.00154977
0.00166697
0.00167928
0.00168965
0.00176303
0.00201718
0.00232945
0.00250205
0.00253263
0.00251823
0.00153164
0.00155831
0.00158397
0.00163673
0.00178196
0.00202298
0.00221174
0.00234745
0.00240094
0.00240576
0.00154634
0.0015482
0.00156432
0.00160513
0.00170206
0.00188738
0.00207912
0.00221671
0.00228145
0.00230873
0.00173818
0.00171304
0.00172865
0.00178007
0.00191421
0.00207157
0.00217867
0.00223607
0.00226545
0.00227913
0.00226681
0.00218189
0.00217684
0.00219907
0.0022494
0.00227723
0.0022779
0.00227613
0.00227069
0.00226368
0.0024838
0.00242641
0.00239817
0.00238984
0.00236712
0.00234812
0.00230766
0.00228433
0.00222492
0.002202
0.0024905
0.00246026
0.00243118
0.00238159
0.00230442
0.00224142
0.00216466
0.0021244
0.00205036
0.00204313
0.00236754
0.00233443
0.00219122
0.00201
0.00191929
0.00189893
0.00191433
0.00189202
0.00184504
0.00182665
0.00154317
0.00144357
0.00131154
0.001323
0.00140703
0.00175543
0.00216002
0.00224222
0.00223537
0.00230437
0.00150507
0.00146752
0.00137067
0.00134864
0.00137295
0.00159304
0.00205329
0.00220278
0.00215606
0.00220695
0.00139755
0.00144419
0.00141269
0.00135316
0.00136275
0.00154
0.00196716
0.00210264
0.00209787
0.00203704
0.00133031
0.00138098
0.00137098
0.00132494
0.00133557
0.00152417
0.00186529
0.00193843
0.00190566
0.00180879
0.00119897
0.00123415
0.00124356
0.00124822
0.00130239
0.0015403
0.00172454
0.00172291
0.00167728
0.00171156
0.00127499
0.00120665
0.00120433
0.00121924
0.00128111
0.00144539
0.00151634
0.00152893
0.00159767
0.00171439
0.00153102
0.00131584
0.00124563
0.00124632
0.00127121
0.00131133
0.00138241
0.00145426
0.0016096
0.00172762
0.00183223
0.0016404
0.00146332
0.00136412
0.00134767
0.00135774
0.00138644
0.00145503
0.00163463
0.00172815
0.00196566
0.00187159
0.00176968
0.00167298
0.0015988
0.00155053
0.00155489
0.00158605
0.00167814
0.00172436
0.00199829
0.0019573
0.00191389
0.00185627
0.0018098
0.00175551
0.00171275
0.00171363
0.00172855
0.00172956
0.00114562
0.00106917
0.00101827
0.00101629
0.00107845
0.0011639
0.00122375
0.0012599
0.00145776
0.00158412
0.00118885
0.0011242
0.00102072
0.00100592
0.0010549
0.00111597
0.001148
0.00113466
0.00116544
0.00130585
0.00117619
0.00112952
0.0010287
0.00100482
0.00104473
0.00108404
0.00109552
0.00107147
0.0010845
0.00116053
0.00113985
0.00108453
0.00101029
0.00100171
0.0010223
0.00102869
0.00101152
0.00100175
0.00105183
0.00111608
0.00107582
0.00103378
0.00100622
0.00100313
0.00100098
0.000985261
0.000978159
0.000987536
0.00106379
0.00113423
0.00111721
0.00106706
0.00103988
0.00102346
0.00100347
0.000984344
0.000981626
0.00102603
0.00113431
0.00123075
0.00127491
0.00117819
0.00113404
0.00110331
0.00107316
0.00103747
0.00102728
0.00108411
0.00120676
0.00133374
0.00153757
0.00139202
0.00126112
0.00119288
0.00116232
0.00111115
0.00108027
0.00114954
0.00127829
0.00138537
0.00166663
0.00157741
0.00146527
0.00133975
0.0012536
0.00119857
0.00112466
0.0012206
0.00131699
0.00141759
0.00174918
0.00168247
0.00161914
0.00151957
0.00138374
0.00126074
0.00119521
0.00126536
0.00132169
0.0013827
0.00124151
0.00105429
0.000977302
0.00089015
0.000875373
0.000883509
0.00087171
0.000848442
0.000863617
0.000909329
0.00121473
0.00106644
0.00093552
0.000863326
0.000865207
0.000874151
0.000862782
0.000834459
0.000848113
0.000893194
0.00114862
0.00107604
0.000943576
0.000883664
0.000872616
0.000870589
0.000850497
0.000828315
0.000841862
0.000886637
0.00106134
0.00102589
0.000940158
0.00090413
0.000883096
0.000870452
0.000841527
0.000829335
0.000847001
0.000894298
0.0010772
0.00101814
0.000958172
0.000932465
0.000902903
0.000878336
0.000846311
0.000844886
0.00086374
0.000914108
0.00132346
0.00115988
0.0010597
0.00100478
0.000957374
0.000921991
0.000877309
0.000869751
0.000886165
0.000947574
0.00153365
0.00142942
0.00131021
0.00120371
0.00111225
0.00103649
0.000950529
0.000907957
0.000917464
0.000989664
0.00161261
0.00155114
0.00147692
0.00137513
0.00127037
0.00118324
0.00106915
0.000971084
0.000962526
0.0010318
0.00171854
0.0016513
0.0015915
0.00153308
0.00142561
0.00134188
0.00122496
0.00106227
0.00100278
0.00105815
0.00172215
0.00166087
0.00159369
0.00154965
0.00147308
0.00139916
0.00133197
0.00118144
0.00106388
0.00107231
0.00125994
0.0011797
0.00104408
0.000896209
0.000809268
0.000778252
0.000773389
0.000778604
0.000797289
0.000833417
0.00113378
0.00102297
0.000882446
0.000799826
0.000763297
0.000750389
0.000751406
0.000761231
0.000783994
0.000830311
0.000988458
0.000895985
0.000817679
0.000772832
0.000751926
0.000745197
0.000747606
0.000760822
0.000788215
0.000836579
0.000963578
0.000880447
0.00082186
0.000795889
0.00078102
0.000772084
0.00077514
0.000791711
0.000814386
0.000861188
0.00112778
0.00100618
0.000934142
0.000890077
0.000860348
0.000835226
0.000831304
0.000837248
0.00085189
0.000884738
0.00134784
0.00120978
0.0011022
0.00102947
0.000976401
0.000935698
0.000905364
0.000896229
0.000900504
0.000919305
0.00152554
0.00139578
0.00127108
0.00116658
0.00109202
0.00103128
0.000992287
0.000957972
0.000953955
0.000967256
0.0016085
0.00149117
0.00137852
0.00127275
0.00117371
0.00108641
0.00103975
0.00100459
0.000997885
0.00101979
0.00157522
0.00146959
0.00136401
0.00126649
0.00117783
0.00109557
0.00105493
0.0010275
0.00103085
0.001079
0.00143878
0.001359
0.0012853
0.00121791
0.001154
0.00110142
0.00107652
0.00105374
0.00106434
0.00113933
0.00123892
0.00113121
0.00100261
0.00089794
0.000835155
0.000795169
0.000773951
0.000775626
0.000789581
0.00082125
0.00102834
0.000945478
0.000858233
0.000794759
0.000756238
0.000729464
0.000721045
0.00072696
0.000748294
0.000802723
0.000943896
0.000859615
0.000798964
0.000759221
0.000734005
0.00071364
0.000705625
0.000711251
0.000735722
0.000802128
0.000931993
0.000855173
0.000799675
0.000767341
0.000749857
0.000728528
0.000705053
0.000708805
0.000735411
0.000821538
0.00100243
0.000919431
0.000863042
0.000824011
0.000795921
0.000763368
0.000729736
0.000726142
0.00075216
0.000847946
0.00109663
0.00101234
0.000941977
0.000884512
0.00084163
0.000803799
0.000768677
0.000754452
0.000770033
0.000857442
0.0011807
0.00108096
0.0010091
0.000949434
0.000895179
0.000852895
0.000816362
0.00079553
0.000803104
0.000868035
0.00121178
0.00111177
0.00105865
0.00100782
0.00095493
0.000913322
0.000877703
0.000851784
0.000856011
0.000908972
0.00120667
0.00114631
0.00111204
0.0010644
0.0010206
0.00099058
0.000957004
0.000924387
0.000930602
0.00100793
0.00121878
0.00121731
0.00117698
0.00113942
0.0011193
0.00110823
0.00107963
0.0010162
0.00101303
0.00105974
0.0013725
0.0013176
0.00120552
0.00113335
0.00105741
0.000981897
0.0009195
0.000884304
0.000886544
0.00092298
0.00110385
0.00107937
0.00101729
0.000954957
0.000882921
0.000813563
0.000777701
0.000777846
0.000805879
0.000912646
0.000992826
0.000918809
0.000857826
0.000800367
0.000747915
0.000714089
0.000711347
0.000722898
0.000772413
0.000925025
0.000970221
0.000879657
0.000803878
0.0007494
0.000709601
0.000688446
0.000689724
0.00070416
0.000757914
0.000932574
0.00100216
0.000909127
0.000824776
0.000764246
0.000721869
0.000695959
0.000694079
0.000704176
0.000751208
0.000910968
0.00107904
0.000991476
0.000901544
0.000833134
0.000783484
0.000748542
0.000731484
0.000733296
0.000759243
0.0008704
0.00116486
0.0010772
0.000985719
0.000916512
0.000863516
0.000825438
0.000796467
0.000779545
0.000787998
0.000850772
0.00125944
0.00116098
0.00107169
0.00100847
0.000960675
0.000924268
0.000896521
0.000853024
0.000843892
0.000871695
0.00134963
0.00123439
0.00115971
0.00111143
0.00107743
0.00105353
0.00102968
0.00097463
0.000928606
0.000927298
0.00141725
0.00130552
0.00125662
0.00122938
0.0012151
0.00121732
0.00120387
0.00115682
0.00105932
0.00101737
0.00165666
0.00150788
0.00139285
0.00130016
0.00117195
0.00104111
0.000991152
0.000997547
0.00106828
0.00129484
0.00139318
0.00127067
0.00117103
0.00107706
0.000966864
0.000895135
0.000888039
0.000913761
0.00104429
0.0013516
0.00128051
0.00116139
0.00104729
0.000941026
0.000859701
0.000821468
0.00082498
0.000860843
0.000998869
0.00128656
0.00117794
0.00104671
0.000942481
0.00086724
0.000815322
0.000792397
0.00079873
0.00083171
0.000940729
0.00118284
0.00113692
0.0010111
0.000922654
0.000859291
0.000814813
0.00079262
0.000796623
0.000822164
0.000900535
0.0010925
0.001172
0.00105953
0.000979435
0.000920618
0.000880932
0.000851588
0.000845064
0.000853823
0.0008972
0.00103136
0.00126652
0.00115844
0.00108084
0.0010246
0.000985617
0.000958952
0.000936359
0.000925737
0.000940021
0.00102612
0.00138428
0.00127001
0.00119887
0.00115214
0.00112304
0.00110721
0.00108479
0.00104126
0.00102272
0.00106141
0.0015121
0.00139344
0.00133544
0.00130181
0.00129093
0.00129383
0.00128067
0.00123213
0.00114864
0.00114845
0.00164173
0.0015257
0.00148259
0.00146678
0.00148867
0.00152809
0.00152844
0.00148021
0.00133814
0.00128413
0.002238
0.00200601
0.0018545
0.00168255
0.00150422
0.00142406
0.00142534
0.00147159
0.00163601
0.00199134
0.00191132
0.00172904
0.0015677
0.00140939
0.00129644
0.00125957
0.00127709
0.0013697
0.00163297
0.00203451
0.00185421
0.00161113
0.00140636
0.00126319
0.00117607
0.00116014
0.00119319
0.0013063
0.00157414
0.00195604
0.00178016
0.00150591
0.00132454
0.0012032
0.00113376
0.00112519
0.00116057
0.00126943
0.00152482
0.001868
0.00169355
0.00146541
0.00130676
0.00119674
0.00113474
0.00112682
0.00115749
0.00125467
0.00147989
0.0018043
0.00167284
0.00148925
0.00136006
0.00126837
0.00121745
0.0012052
0.00122061
0.00127596
0.00145206
0.00177007
0.00174997
0.00160302
0.00148313
0.0014037
0.00136307
0.00134948
0.00135192
0.00136544
0.00146669
0.0017592
0.00189789
0.00175108
0.00164587
0.00159277
0.00157261
0.00156935
0.00156151
0.00153208
0.00155585
0.00176977
0.0020857
0.00193493
0.00185613
0.0018275
0.00182964
0.00184673
0.00184832
0.00180135
0.00174063
0.00185305
0.00230293
0.00215126
0.00209737
0.00208701
0.00211455
0.00217119
0.00221696
0.00219822
0.00208908
0.00211542
0.00273806
0.00245377
0.00222097
0.00201797
0.00190942
0.00190602
0.00196477
0.00212616
0.00239077
0.00277421
0.00247491
0.00222073
0.00197774
0.00181161
0.00173211
0.00173712
0.00183116
0.00203933
0.00235479
0.0027689
0.00241986
0.00208399
0.00183698
0.00169651
0.00163531
0.00164807
0.00175372
0.00196776
0.00228382
0.00266555
0.00231978
0.00198906
0.00178222
0.0016567
0.0016021
0.00161541
0.0017138
0.00191148
0.00220982
0.00254705
0.00226183
0.00196335
0.00177935
0.0016587
0.00160675
0.00161351
0.0017015
0.00188122
0.00215418
0.00247998
0.0022648
0.00202668
0.001876
0.00175268
0.00168944
0.00168017
0.00173481
0.0018753
0.00213393
0.00245958
0.00237522
0.00219483
0.00204085
0.00190879
0.00183522
0.00181808
0.00184704
0.00193372
0.00215246
0.00248433
0.0025765
0.00240863
0.00224886
0.0021238
0.00205804
0.00204306
0.00206833
0.00211283
0.00223832
0.00253199
0.00284305
0.00266195
0.00250099
0.00239104
0.00234618
0.00234724
0.0023998
0.00245616
0.0025099
0.00268959
0.00317613
0.00295656
0.0027969
0.00270781
0.00267668
0.00270369
0.00279782
0.0029149
0.00300964
0.00311825
0.00283329
0.00253935
0.00228136
0.00211596
0.00205857
0.00208713
0.00220897
0.00241914
0.0026986
0.00305653
0.00262767
0.00232932
0.0020704
0.001935
0.00189232
0.00192868
0.00206593
0.00228427
0.00256477
0.00291919
0.002528
0.0021704
0.00194105
0.00182887
0.00179486
0.00182895
0.00196443
0.00218075
0.00245541
0.00279296
0.00241912
0.00209339
0.00189594
0.00178924
0.00175359
0.00177964
0.00190085
0.00210166
0.00236543
0.00267356
0.00238082
0.00207784
0.00189836
0.0017878
0.001747
0.00176519
0.00187504
0.0020618
0.00231534
0.00262049
0.00241525
0.00216099
0.0020145
0.0018739
0.00180607
0.00179983
0.00188515
0.0020567
0.00230659
0.00261566
0.00254989
0.00234728
0.00219811
0.00202993
0.00192986
0.00191062
0.00197111
0.00211443
0.0023438
0.00266162
0.00276158
0.00259053
0.00242
0.00223641
0.00213321
0.00211281
0.00217287
0.00229114
0.00246269
0.00273995
0.00305599
0.00287268
0.00266872
0.00249071
0.00241447
0.0024093
0.00249866
0.00263322
0.00277181
0.00295909
0.0034312
0.00319197
0.00295907
0.00280865
0.0027516
0.00276467
0.00288583
0.0030675
0.00324583
0.00338578
0.00160782
0.00153717
0.00146711
0.00142667
0.00141358
0.00141162
0.00141936
0.00146537
0.00155459
0.00166911
0.00154809
0.00144474
0.00137476
0.00134837
0.00134662
0.00134739
0.00135797
0.00140967
0.00149037
0.00159688
0.0015157
0.00139186
0.00133422
0.00130962
0.00130215
0.00130421
0.00132817
0.00138078
0.00145373
0.00154097
0.00148147
0.00136846
0.0013184
0.0012945
0.00128574
0.00128859
0.0013168
0.00136324
0.00142245
0.00148158
0.00147057
0.00136297
0.00131873
0.00129491
0.00128468
0.00128661
0.00131224
0.00134849
0.0013967
0.00145518
0.00148251
0.00139147
0.00136166
0.00132485
0.00129805
0.00129466
0.00131289
0.00134526
0.00139491
0.00145641
0.00153649
0.00145574
0.00144111
0.00138762
0.00132669
0.00131493
0.00132535
0.00135802
0.00140953
0.00148364
0.00164079
0.00154134
0.00154275
0.00146339
0.00137356
0.00134939
0.00135825
0.00139361
0.00144282
0.00152396
0.00177372
0.00167208
0.00165158
0.00153411
0.00143881
0.0014129
0.00142411
0.00146353
0.00150803
0.00157733
0.00191875
0.0018427
0.00171751
0.00159971
0.00151788
0.00149004
0.00149129
0.0015234
0.00157859
0.00163258
0.000873282
0.000873184
0.000875481
0.000872027
0.000839234
0.000806568
0.000797547
0.000812085
0.000827865
0.000845305
0.000857173
0.000834564
0.000820054
0.000821243
0.000802722
0.000775659
0.000774744
0.000790709
0.000809394
0.000832951
0.000849778
0.000808697
0.000790732
0.000780629
0.00076355
0.000754772
0.000759571
0.000777534
0.000796539
0.000811145
0.00083413
0.000789308
0.000769266
0.000754194
0.000742731
0.000739856
0.000744901
0.000759257
0.000775035
0.00078521
0.000824102
0.000781543
0.000762241
0.000748626
0.000740785
0.000737992
0.000738053
0.000743976
0.000755481
0.000769676
0.000821627
0.000781403
0.000765451
0.000753388
0.000746427
0.000743165
0.00074163
0.000744954
0.000756874
0.000772497
0.00083352
0.000799363
0.000790489
0.000772302
0.000759657
0.000757663
0.000757988
0.000762894
0.000775017
0.000790427
0.000864787
0.000828145
0.00083089
0.000805594
0.000777414
0.00077005
0.000774145
0.000780278
0.000790858
0.000805453
0.000916623
0.000873443
0.000866081
0.000832529
0.000801169
0.000783357
0.000786657
0.000794337
0.000802895
0.000816797
0.000966712
0.000934905
0.000878831
0.000844818
0.000819111
0.00079999
0.00080268
0.000811277
0.000818684
0.000828981
0.000577631
0.000582787
0.000592989
0.000594167
0.000550207
0.000536037
0.000539211
0.000544735
0.000546992
0.000552819
0.00057809
0.000573243
0.000572475
0.000576602
0.000535739
0.000521558
0.000524159
0.000530603
0.000536137
0.000548892
0.000584359
0.000571656
0.00056385
0.000549752
0.000516361
0.000509726
0.000514209
0.000523371
0.00053241
0.000543819
0.000577283
0.000556392
0.00054481
0.000523949
0.000504985
0.000501284
0.000505481
0.000516804
0.000527897
0.000539176
0.000557632
0.000539913
0.000527392
0.0005119
0.000503202
0.00050079
0.000501223
0.000507714
0.000517422
0.000527381
0.000551079
0.000532496
0.000520386
0.000510921
0.000506098
0.000504061
0.000503781
0.00050835
0.000515911
0.000524013
0.000552171
0.000535792
0.0005277
0.000520473
0.000517198
0.000515845
0.000515734
0.000519862
0.000527514
0.000536434
0.000563581
0.000553266
0.000548438
0.000536109
0.000530317
0.000528306
0.000527763
0.000529882
0.000534128
0.000542919
0.000585103
0.000584519
0.000576408
0.000559828
0.000543368
0.000537361
0.000536164
0.000535987
0.000537934
0.000545574
0.000623188
0.000615618
0.000587595
0.000572346
0.000563098
0.000547146
0.000547156
0.00054934
0.000550503
0.000553025
0.00044788
0.000444745
0.000445369
0.000451977
0.000437656
0.000421204
0.000424564
0.000432147
0.000434729
0.000438725
0.000447331
0.000440473
0.000441236
0.000444824
0.000423199
0.000410728
0.000412582
0.000420157
0.000424663
0.000434699
0.000448217
0.000440621
0.000438262
0.000436412
0.000412109
0.000402387
0.000403935
0.000412632
0.000420428
0.000431888
0.00045106
0.000442156
0.000436316
0.000427424
0.00040471
0.000396816
0.000397127
0.000403995
0.000414094
0.000426379
0.000455537
0.000441959
0.000432343
0.000418199
0.000401709
0.000396796
0.000396349
0.00039965
0.000406809
0.000416983
0.000450526
0.000435583
0.00042261
0.000409748
0.000401126
0.00039797
0.000397512
0.00040083
0.000406739
0.000415256
0.000438541
0.000427036
0.000417823
0.000409836
0.000404796
0.000402901
0.00040247
0.000404971
0.000410623
0.000419085
0.000441154
0.000434541
0.000427243
0.000421445
0.000417427
0.000412189
0.000410104
0.000411386
0.000417957
0.00042779
0.000460201
0.000458106
0.000447192
0.000437896
0.000429936
0.000421191
0.000418104
0.000419763
0.000424165
0.000431686
0.000492504
0.000478339
0.000463559
0.000454357
0.000447217
0.000432771
0.000428529
0.000431654
0.000434256
0.000436675
0.000387449
0.000382851
0.000377706
0.000375053
0.000368873
0.000362069
0.000365056
0.000373155
0.000377014
0.000381106
0.00038521
0.000377944
0.000372637
0.000370967
0.000363292
0.000356416
0.000357572
0.000364102
0.000369349
0.000376852
0.000384783
0.000375723
0.000369402
0.000367813
0.00035864
0.0003517
0.000351673
0.000356833
0.000363437
0.00037211
0.000383628
0.000374621
0.000369294
0.000366148
0.000355505
0.000349078
0.000348237
0.000350638
0.000355922
0.00036279
0.000384046
0.000375672
0.000371056
0.000364997
0.000354313
0.000349798
0.000348908
0.000349774
0.000353167
0.000358259
0.000388439
0.000379711
0.000371431
0.000362603
0.000354373
0.000351123
0.000350218
0.000351099
0.000354056
0.000358537
0.00038787
0.000377954
0.000369124
0.000361019
0.000356
0.00035392
0.000353054
0.000353094
0.000356083
0.000361546
0.000385316
0.000378284
0.000370747
0.000366314
0.000364226
0.000360992
0.000357685
0.000357347
0.000362061
0.000369345
0.000396513
0.000390115
0.000383241
0.000379387
0.000375811
0.0003679
0.000363125
0.000363491
0.000368673
0.00037429
0.000418139
0.000408342
0.00040007
0.000392359
0.000387591
0.000378887
0.000369571
0.000371255
0.000376479
0.00037916
0.000358622
0.000354291
0.000349719
0.000345228
0.000340929
0.00033842
0.000340545
0.000344921
0.000348572
0.000352299
0.000357517
0.000351874
0.000346919
0.000342369
0.000338254
0.000335437
0.000336071
0.00033918
0.000342876
0.000348211
0.000356653
0.000350252
0.000344514
0.000340169
0.000335838
0.00033283
0.00033262
0.000335003
0.000338464
0.00034373
0.000355766
0.000349096
0.000343344
0.000339058
0.000334214
0.000331317
0.000330669
0.000331741
0.000334445
0.0003382
0.000355919
0.000349275
0.000343787
0.000339219
0.000334185
0.000331761
0.00033106
0.000331337
0.000333124
0.000335665
0.000359051
0.000352007
0.000345709
0.000339502
0.000334889
0.000333002
0.000332318
0.000332466
0.000334013
0.000336612
0.000360147
0.000353193
0.000345996
0.000340166
0.000337197
0.000336099
0.000334817
0.0003345
0.000336335
0.000339828
0.00035895
0.000353772
0.000347307
0.000344218
0.000343564
0.000341811
0.000338549
0.000337824
0.000340011
0.000343874
0.000371126
0.000362221
0.000355667
0.000353329
0.000351776
0.000348142
0.000342842
0.000341852
0.000344182
0.000347718
0.000378255
0.000371852
0.000366232
0.000361576
0.000358146
0.000354438
0.00034768
0.000346575
0.000349399
0.000351724
0.000355315
0.000351206
0.000348256
0.00034426
0.000339504
0.000336916
0.000338881
0.000342692
0.000344878
0.000347761
0.000355329
0.000349433
0.000345381
0.000341343
0.00033692
0.00033418
0.000334954
0.000337351
0.000339963
0.000344592
0.000355347
0.000348944
0.00034385
0.00033919
0.000334586
0.000331966
0.000331908
0.000333828
0.000336775
0.000341794
0.000355108
0.000348792
0.000342742
0.000337356
0.000332797
0.000330487
0.000329996
0.000331054
0.000333441
0.00033703
0.000355518
0.000348537
0.000341918
0.000336531
0.000332458
0.000330433
0.000329787
0.000330149
0.000331735
0.000334128
0.000356261
0.000348951
0.000342151
0.000336849
0.000333354
0.000331771
0.000331149
0.000331395
0.000332957
0.000335324
0.000357106
0.000349876
0.000343681
0.000338474
0.000336026
0.000334742
0.0003339
0.000334054
0.000335938
0.000338996
0.000360764
0.000352918
0.000346767
0.000342896
0.000341382
0.000339432
0.000337566
0.000337414
0.000339055
0.000342367
0.000369763
0.000362254
0.000355712
0.000351293
0.000348346
0.000345394
0.000341667
0.000341343
0.000342418
0.00034472
0.000372871
0.000367479
0.000362605
0.000358258
0.00035411
0.000350332
0.000345911
0.000346207
0.000347441
0.000348388
0.206014
0.208222
0.20768
0.207844
0.21162
0.211619
0.207838
0.207673
0.208216
0.206011
0.208219
0.211656
0.21268
0.213123
0.213775
0.213775
0.213122
0.21268
0.211654
0.2082
0.207675
0.212679
0.21388
0.214263
0.214444
0.214444
0.214264
0.213875
0.212672
0.207652
0.207839
0.213122
0.214263
0.214602
0.214722
0.214716
0.214596
0.214256
0.213113
0.207818
0.211619
0.213775
0.214444
0.214717
0.214829
0.214828
0.214714
0.214436
0.213768
0.211607
0.211619
0.213771
0.214437
0.214714
0.214828
0.214828
0.214714
0.214436
0.213768
0.211604
0.207823
0.213114
0.214256
0.214594
0.214714
0.214715
0.214596
0.214266
0.213126
0.207795
0.207653
0.21267
0.213874
0.214258
0.214438
0.214454
0.214278
0.213936
0.212698
0.207634
0.208197
0.211644
0.212669
0.213124
0.213784
0.213829
0.21315
0.212697
0.211657
0.208177
0.205987
0.208191
0.207645
0.207802
0.21162
0.211622
0.207801
0.207634
0.208178
0.205962
0.213784
0.214574
0.214594
0.214694
0.215475
0.215475
0.214693
0.214593
0.214573
0.213783
0.214573
0.215488
0.215824
0.21599
0.216166
0.216166
0.21599
0.215824
0.215488
0.214566
0.214593
0.215823
0.216226
0.216382
0.216453
0.216454
0.216383
0.21622
0.215818
0.214585
0.214693
0.215989
0.216382
0.216539
0.216605
0.216598
0.216532
0.216375
0.215983
0.214685
0.215475
0.216165
0.216454
0.216598
0.216664
0.216663
0.216596
0.216445
0.216159
0.215469
0.215476
0.216161
0.216446
0.216596
0.216663
0.216663
0.216596
0.216445
0.216159
0.215472
0.214686
0.215983
0.216375
0.216531
0.216596
0.216596
0.216531
0.216375
0.215989
0.214729
0.214585
0.215817
0.216219
0.216375
0.216445
0.216446
0.216376
0.21621
0.215823
0.214621
0.214566
0.215483
0.215818
0.215988
0.216161
0.216151
0.215988
0.215823
0.215493
0.2146
0.213774
0.214576
0.214596
0.214727
0.21548
0.215477
0.214723
0.214621
0.2146
0.213814
0.217327
0.217585
0.217645
0.2177
0.217855
0.217854
0.2177
0.217645
0.217585
0.217327
0.217585
0.217855
0.217971
0.218035
0.218077
0.218077
0.218035
0.217971
0.217855
0.217584
0.217644
0.217971
0.218102
0.218172
0.218204
0.218204
0.218172
0.2181
0.21797
0.217643
0.2177
0.218035
0.218171
0.218246
0.21828
0.218277
0.218243
0.218169
0.218033
0.217699
0.217854
0.218076
0.218204
0.218277
0.218312
0.218312
0.218277
0.218201
0.218074
0.217853
0.217855
0.218075
0.218201
0.218276
0.218312
0.218312
0.218277
0.218201
0.218074
0.217853
0.217699
0.218033
0.218169
0.218243