/*--------------------------------*- C++ -*----------------------------------*\
  =========                 |
  \\      /  F ield         | OpenFOAM: The Open Source CFD Toolbox
   \\    /   O peration     | Website:  https://openfoam.org
    \\  /    A nd           | Version:  9
     \\/     M anipulation  |
\*---------------------------------------------------------------------------*/
FoamFile
{
    format      ascii;
    class       volScalarField;
    location    "1";
    object      f7.gas;
}
// * * * * * * * * * * * * * * * * * * * * * * * * * * * * * * * * * * * * * //

dimensions      [0 0 0 0 0 0 0];

internalField   nonuniform List<scalar> 
137980
(
0.00859539
0.00961524
0.00864488
0.00827721
0.00847744
0.00854235
0.00873794
0.0090109
0.00917775
0.00930356
0.00967096
0.00990448
0.00923239
0.0087215
0.00834533
0.00818038
0.00827493
0.00863629
0.0092228
0.00972131
0.00868886
0.00868229
0.00932079
0.00887108
0.0089358
0.00891262
0.00872054
0.00885275
0.0090374
0.0093607
0.00831578
0.00767042
0.00789738
0.00851183
0.00872698
0.00921766
0.00894941
0.00825235
0.00773619
0.00771818
0.00743303
0.00718939
0.00761818
0.0080574
0.00833175
0.00901515
0.00911587
0.0085931
0.00739033
0.00717494
0.00713226
0.00728147
0.00763214
0.00795071
0.00838002
0.00865705
0.00884145
0.00851447
0.00731926
0.00756728
0.00721451
0.00770027
0.00825052
0.00814885
0.0081721
0.00837291
0.00861858
0.00834403
0.00754574
0.0082923
0.00782248
0.00866832
0.0084491
0.00788484
0.00765763
0.00767168
0.00891566
0.00886678
0.00781792
0.00836952
0.00788988
0.00848552
0.00809201
0.00728587
0.00686433
0.007053
0.00738172
0.00916575
0.00871563
0.00816953
0.00819059
0.0085416
0.00783247
0.00710083
0.00675197
0.0069188
0.00696674
0.00753084
0.0084514
0.00825867
0.0056358
0.00623423
0.00621646
0.00607361
0.00602868
0.00603023
0.00604317
0.00614953
0.00617112
0.00596804
0.00636717
0.00635874
0.00644984
0.00643866
0.00640141
0.00644819
0.00666966
0.00676173
0.00663122
0.00631522
0.006217
0.00623447
0.00651006
0.00670132
0.00664798
0.00670536
0.00684162
0.00689115
0.00681354
0.006635
0.00604569
0.00615435
0.00634827
0.00655396
0.00652801
0.00668608
0.00671862
0.00668733
0.00657795
0.00634746
0.00591057
0.006027
0.00626954
0.00637548
0.00633366
0.00645402
0.00648404
0.00642043
0.00625604
0.00613976
0.00584159
0.0059911
0.00616316
0.00624156
0.00620057
0.00622231
0.00627437
0.00625343
0.00611523
0.00609407
0.00597102
0.00619617
0.00628672
0.00619009
0.00619933
0.00624187
0.00622553
0.00616757
0.00603847
0.00610726
0.00624867
0.00627037
0.0062122
0.00619066
0.00624797
0.00620779
0.00631237
0.00632171
0.00614979
0.00607472
0.00618743
0.00617905
0.00610041
0.00607184
0.00616289
0.0061893
0.00602321
0.00622083
0.00622983
0.00611605
0.00586526
0.0057888
0.00576551
0.00585141
0.00599877
0.00611106
0.00596937
0.00611862
0.00610769
0.00604181
0.00502833
0.00502282
0.00512003
0.00512322
0.00508624
0.00504423
0.00503342
0.0050423
0.00506555
0.00511235
0.00508246
0.00523141
0.00524619
0.0052364
0.00519924
0.00514497
0.00513648
0.00513645
0.00512747
0.00514715
0.00530157
0.00530643
0.00528015
0.00525623
0.00521247
0.00515868
0.0051445
0.00512892
0.00512119
0.00517484
0.00532814
0.00532505
0.00528192
0.00524378
0.00515871
0.0051259
0.00509147
0.00508415
0.0051232
0.00518588
0.00537539
0.00528907
0.00519774
0.00517228
0.00516013
0.00511936
0.0050848
0.00508291
0.00512007
0.00520523
0.00521801
0.00521823
0.00524547
0.00524693
0.00519432
0.0051345
0.00511975
0.00513984
0.00519462
0.00518994
0.00522999
0.00529607
0.00532637
0.00526388
0.00517662
0.00515903
0.0051893
0.00525137
0.0052464
0.00523323
0.00532911
0.00540697
0.00532082
0.00517346
0.00515059
0.00518612
0.00528082
0.0052796
0.00524679
0.00524005
0.00537788
0.00531568
0.00509499
0.0051391
0.00515141
0.00527784
0.00529605
0.0052736
0.00513135
0.0051399
0.00510444
0.00498972
0.00504485
0.00507306
0.00512666
0.00529092
0.00527214
0.00513935
0.00492645
0.00493164
0.00479961
0.00481086
0.00490155
0.00496674
0.00499809
0.00496848
0.00492428
0.00499969
0.00503202
0.00500783
0.00481896
0.00481818
0.00487468
0.00489702
0.00487075
0.00492223
0.0049984
0.00506863
0.0050568
0.00503425
0.0048113
0.00479639
0.00480248
0.00480791
0.00502421
0.00512188
0.00511895
0.00509867
0.00506109
0.00503577
0.00482854
0.00481332
0.00485248
0.0051147
0.00517332
0.00516178
0.00513189
0.00506897
0.00502
0.00501787
0.00499152
0.00502044
0.00513877
0.00521564
0.00520089
0.00516251
0.00507334
0.00499151
0.00497499
0.00498056
0.00513409
0.00517634
0.00527132
0.0052525
0.0051969
0.00507468
0.00498114
0.00496194
0.0049653
0.00497222
0.00531817
0.00537055
0.00534395
0.00524437
0.00505201
0.00497571
0.00495246
0.0049602
0.00496744
0.00494692
0.00547448
0.00544291
0.0052681
0.00502524
0.00498264
0.00495776
0.00496713
0.00499795
0.00496751
0.00484035
0.00549449
0.0052995
0.004966
0.0049776
0.00499125
0.00499763
0.00503504
0.00503317
0.0049064
0.00481227
0.00524548
0.00479021
0.00494867
0.00502873
0.00505311
0.00505574
0.00511323
0.00496993
0.00494803
0.00489188
0.00477212
0.00470455
0.00462219
0.00463113
0.00467254
0.0047471
0.00483046
0.00487344
0.00487344
0.00487749
0.00487671
0.00481609
0.00477146
0.00479055
0.00480993
0.0048701
0.00491182
0.00489322
0.00486054
0.00485905
0.00492415
0.0048096
0.00478437
0.00478267
0.00491346
0.00494589
0.00493252
0.00487795
0.00480946
0.00480204
0.00498576
0.00477994
0.00480034
0.00490635
0.00496047
0.00494957
0.00490974
0.00481381
0.00477901
0.00478174
0.00514616
0.0049049
0.00487805
0.00493682
0.0049738
0.00495136
0.0048711
0.0047937
0.00477868
0.00478861
0.00522776
0.00504342
0.00505043
0.00505835
0.00502318
0.00494725
0.00482647
0.0047855
0.00480535
0.00479757
0.00536419
0.00526905
0.00521817
0.00509732
0.00495589
0.004827
0.00478368
0.00479905
0.00483378
0.00478284
0.00539274
0.00533758
0.0051487
0.00482289
0.00480679
0.00477352
0.00477641
0.00486644
0.00484456
0.00471729
0.00535271
0.00506255
0.00463336
0.00470146
0.00479743
0.00479311
0.00489527
0.00489403
0.00484626
0.00469092
0.00524555
0.00434809
0.00449949
0.00479467
0.00490264
0.00492119
0.00493143
0.00490545
0.0048242
0.00468298
0.00382431
0.00385483
0.0039153
0.00408883
0.00444759
0.00465605
0.0047486
0.00477882
0.00477706
0.00477565
0.00384837
0.00391861
0.00412333
0.00447163
0.00465822
0.00475111
0.00478419
0.00478159
0.0047642
0.00472813
0.00392104
0.00401768
0.00431669
0.00458578
0.0047113
0.00477819
0.00478581
0.00477274
0.00473793
0.0046672
0.00400688
0.00415896
0.00443847
0.00463335
0.00474868
0.00477989
0.00477903
0.00476793
0.00473187
0.00465217
0.0043122
0.00450565
0.00467285
0.00478344
0.00482953
0.00483132
0.00481922
0.00479143
0.00473314
0.00463898
0.00503413
0.00502758
0.00500498
0.00498187
0.00495449
0.00489461
0.0048413
0.00479654
0.004689
0.00457019
0.0051693
0.00512798
0.00507813
0.00503129
0.00497715
0.00489964
0.00484045
0.00472895
0.00455355
0.00443368
0.00510094
0.00507038
0.00500633
0.00494117
0.00483174
0.00475254
0.00463964
0.00446124
0.00436994
0.00431632
0.00486677
0.00482576
0.00471454
0.00457127
0.00450339
0.0044074
0.00432354
0.00429588
0.0042808
0.00427762
0.00430506
0.0040605
0.00402712
0.0040933
0.00420232
0.00418595
0.00418596
0.00421725
0.00424762
0.00426778
0.00377511
0.00377122
0.00374449
0.00364668
0.00365167
0.00380557
0.00429327
0.0045766
0.00460591
0.00462049
0.003646
0.00370464
0.00369266
0.00363309
0.00365214
0.00383547
0.00426853
0.00450606
0.00454582
0.00456427
0.00338284
0.00350095
0.00351863
0.00353933
0.00363156
0.00392184
0.0042574
0.004435
0.00445692
0.00444192
0.0033703
0.00339538
0.00342676
0.00348973
0.00365685
0.00391849
0.00412103
0.00425493
0.00429626
0.00429885
0.00339382
0.00338786
0.00340645
0.00345595
0.00357244
0.00377222
0.00397454
0.00411323
0.00417327
0.00420385
0.00364283
0.0035951
0.00361114
0.00366742
0.00380466
0.00396787
0.00407558
0.00413471
0.00416422
0.00418674
0.00423525
0.0041329
0.0041049
0.00412473
0.00417307
0.00420042
0.00420009
0.00419763
0.00418584
0.00418304
0.00446626
0.004397
0.00435649
0.00434418
0.00431383
0.00429017
0.00424141
0.00421812
0.00416264
0.004148
0.00447594
0.00443965
0.00440511
0.00435072
0.00426931
0.0042014
0.00411887
0.00407801
0.00400182
0.00399306
0.00437179
0.00432756
0.00416077
0.00395592
0.0038474
0.00382334
0.00384125
0.00381626
0.00376539
0.00374185
0.00328457
0.00312362
0.00297037
0.00298117
0.00308449
0.00348825
0.0039548
0.00405025
0.00405372
0.00415698
0.00323556
0.00317216
0.00303712
0.0030099
0.00304476
0.00330153
0.00382671
0.00399402
0.00393314
0.00401669
0.00310606
0.00314594
0.00310065
0.0030197
0.00303448
0.00324067
0.00372152
0.0038658
0.00385496
0.00378029
0.00302751
0.00307497
0.00305422
0.00298925
0.00300651
0.00322321
0.00359144
0.00366301
0.00362611
0.00352974
0.00286835
0.00289553
0.00289925
0.00290067
0.00296351
0.00323134
0.00342883
0.003427
0.00339557
0.00344783
0.00297454
0.00286393
0.00285464
0.00287257
0.00294323
0.003125
0.00320253
0.00323086
0.00331915
0.00347077
0.00331042
0.00301374
0.00291355
0.00291167
0.00293791
0.00298969
0.00307598
0.00316682
0.00334649
0.00350511
0.00368404
0.00343669
0.00320724
0.00307315
0.00304286
0.00305439
0.00309147
0.0031755
0.00339046
0.00351729
0.00384436
0.00371961
0.0035857
0.00346333
0.00336956
0.00330317
0.00330759
0.00334498
0.00345944
0.00352095
0.00389803
0.00383727
0.00377501
0.00369456
0.00363088
0.00355944
0.00350248
0.00350386
0.00352817
0.00353288
0.00279274
0.0026901
0.0025956
0.00256996
0.00264073
0.00274387
0.00282078
0.0028843
0.00311847
0.00328256
0.00285096
0.00275877
0.0025962
0.00254987
0.00260547
0.00268421
0.00272328
0.00272123
0.00278263
0.00294857
0.00283035
0.00275917
0.00260153
0.00253967
0.00258903
0.00264169
0.00265959
0.00264307
0.0026818
0.00278736
0.00277648
0.0026926
0.0025579
0.00253367
0.00255994
0.00257451
0.00256616
0.0025668
0.00264122
0.00273296
0.00267471
0.00259689
0.00254696
0.00253594
0.00253451
0.00252534
0.00252318
0.00254933
0.00265398
0.00275583
0.00271683
0.00263511
0.00259415
0.00256119
0.00253949
0.00252382
0.00252612
0.00259633
0.00274278
0.00287753
0.00292721
0.00278841
0.00271959
0.00267125
0.00263217
0.00259512
0.00259113
0.00268083
0.00284233
0.00300063
0.0032781
0.00308072
0.00290248
0.00280105
0.00275045
0.00269219
0.00266758
0.00277382
0.00293972
0.00306157
0.00344988
0.00331635
0.00316614
0.00300316
0.00288635
0.00280282
0.00273133
0.0028749
0.00300605
0.00311879
0.00356651
0.00346755
0.00336579
0.00322863
0.00305693
0.00289605
0.00281874
0.0029408
0.0030207
0.00308179
0.0029197
0.00266948
0.00255746
0.00242151
0.0023826
0.00238659
0.00237226
0.00236685
0.00240496
0.00249721
0.00287821
0.00267679
0.00249252
0.00237605
0.00235834
0.00236005
0.00234313
0.00233173
0.002368
0.00245544
0.00278298
0.0026724
0.0024913
0.00239169
0.00235433
0.0023434
0.00231268
0.002309
0.00234576
0.00243397
0.00265395
0.00259902
0.00247444
0.00240438
0.00235885
0.00233338
0.00229656
0.00230047
0.00234039
0.00242996
0.00266377
0.00257285
0.00248483
0.00242687
0.00237334
0.0023354
0.00230274
0.00231254
0.00235697
0.00245288
0.00296084
0.00273701
0.00259366
0.00250732
0.00244025
0.00239126
0.00234491
0.00234929
0.00238709
0.00249569
0.00324747
0.00309093
0.00291605
0.00275926
0.00263274
0.00253514
0.00243447
0.00240686
0.00243373
0.00255845
0.00337091
0.00326658
0.00314869
0.00300179
0.00285209
0.00272804
0.00258236
0.0024907
0.00250034
0.00262812
0.00350912
0.00340539
0.00330942
0.0032129
0.00306349
0.00294319
0.00278326
0.00260422
0.00256969
0.00267367
0.00352391
0.00342344
0.00331809
0.00324442
0.00313028
0.00303257
0.00293341
0.0027462
0.00265251
0.00269607
0.00294833
0.0028296
0.00263768
0.00243291
0.0023056
0.00225425
0.00225288
0.00226831
0.00231262
0.00238867
0.00278677
0.00261365
0.00241285
0.00228066
0.00221519
0.00219204
0.00219745
0.00222039
0.0022713
0.0023677
0.00258327
0.00243513
0.00230722
0.00222713
0.00218471
0.00217046
0.00217844
0.00220543
0.0022596
0.00235761
0.00253807
0.00240247
0.00229816
0.00223887
0.00220573
0.00218637
0.00219327
0.0022214
0.00227351
0.00236997
0.00273185
0.00254895
0.00243425
0.00235965
0.00230602
0.00226598
0.00226205
0.00227744
0.00231549
0.00239406
0.00300207
0.00279994
0.0026436
0.00253104
0.00244906
0.00238946
0.00234878
0.00235268
0.00237503
0.00242856
0.00323399
0.00304255
0.0028595
0.00271245
0.00259659
0.00251864
0.00245533
0.0024368
0.00244988
0.00249987
0.00334521
0.00317266
0.00300533
0.00285403
0.00271169
0.00260138
0.00253453
0.00250695
0.00251918
0.0025832
0.00331141
0.00315274
0.00299666
0.00285973
0.00273198
0.00263001
0.00256874
0.00255895
0.00258043
0.00268608
0.00314737
0.0030268
0.00291722
0.00281988
0.00272645
0.00266242
0.00261943
0.00261941
0.00265439
0.00279262
0.0029292
0.00277916
0.00259605
0.00243976
0.0023346
0.00227203
0.00226141
0.00227485
0.00231479
0.00238799
0.00265619
0.00252168
0.00238112
0.0022716
0.00220304
0.00216188
0.00216249
0.00218048
0.00223036
0.00234154
0.00252678
0.00238255
0.00227489
0.00220162
0.00215549
0.00212228
0.00212047
0.00213856
0.00219471
0.00232684
0.0024956
0.00236262
0.00226332
0.00219539
0.00215201
0.00211621
0.00210855
0.00212601
0.00218516
0.0023382
0.00258355
0.0024418
0.00233747
0.00226437
0.0022105
0.00216358
0.00213168
0.00214241
0.0022004
0.00236403
0.00270498
0.00256105
0.00244598
0.00235
0.0022773
0.00221982
0.00218311
0.0021873
0.00222848
0.00237407
0.0028129
0.00265396
0.00253916
0.00244227
0.00235769
0.00229654
0.00225391
0.00225345
0.0022811
0.00239953
0.00285503
0.00270074
0.00261228
0.00252852
0.00244751
0.00238852
0.00234781
0.00234335
0.00236711
0.00246767
0.00285753
0.00275765
0.00269291
0.00261591
0.00255053
0.00250887
0.00247202
0.0024575
0.00248578
0.00261353
0.00288751
0.00286467
0.00279566
0.00273737
0.00270416
0.00268842
0.00265746
0.0026019
0.00261882
0.00270741
0.00314632
0.00305735
0.00289491
0.00278525
0.00268305
0.00258838
0.00251298
0.00248832
0.00250398
0.00257424
0.00279628
0.00273284
0.00262613
0.00252662
0.00242263
0.00232686
0.00228842
0.00229815
0.00235789
0.00254366
0.00262793
0.00250078
0.00239498
0.00229745
0.00221165
0.00216175
0.00216334
0.00219273
0.0022875
0.00253395
0.00258159
0.00242918
0.00230116
0.00220595
0.0021387
0.00210753
0.00211358
0.00214727
0.00224878
0.00252215
0.00260843
0.00245272
0.00231571
0.00221421
0.00214379
0.00210454
0.00210738
0.00213506
0.0022278
0.00248293
0.00270841
0.00256001
0.00241607
0.00230409
0.0022239
0.00216958
0.00215736
0.00217141
0.00223322
0.0024249
0.00282156
0.00267579
0.00253224
0.00242088
0.00233689
0.00227999
0.0022447
0.00224694
0.00227727
0.00239781
0.00295108
0.00279738
0.00265888
0.0025568
0.00248061
0.00242817
0.00238931
0.00236146
0.00237057
0.00243582
0.0030821
0.00291374
0.00279506
0.00271447
0.00265825
0.00262188
0.00259454
0.00253393
0.00251657
0.00253291
0.00319239
0.0030317
0.00294829
0.00289773
0.00286917
0.00286894
0.00285508
0.00280139
0.00271631
0.00268064
0.00364357
0.00342866
0.00325841
0.003119
0.00294532
0.00277817
0.00272586
0.00274405
0.00286286
0.00319183
0.00328971
0.00309597
0.00293578
0.00279062
0.00263371
0.00253784
0.00253801
0.00258913
0.00279887
0.00323733
0.00313011
0.00293082
0.0027461
0.00257882
0.00245132
0.00239757
0.00240995
0.00248242
0.00270904
0.00312099
0.00297923
0.00276202
0.00258508
0.00245424
0.00236578
0.00233277
0.00234929
0.00241734
0.00260949
0.00297147
0.00291548
0.00270316
0.00254662
0.00243264
0.00235469
0.00232175
0.00233471
0.00239136
0.00253647
0.00284502
0.00295757
0.00276253
0.0026171
0.00250905
0.0024368
0.00239159
0.00239366
0.00242342
0.00251993
0.00275997
0.00308273
0.00289487
0.00275542
0.00265328
0.00258471
0.00254138
0.0025208
0.00252998
0.00257937
0.00274377
0.00323997
0.00304987
0.00292289
0.00283721
0.00278426
0.00275921
0.00273222
0.00270368
0.00271136
0.00279793
0.00341449
0.00322647
0.00312144
0.00305782
0.00303158
0.00303437
0.00302373
0.00297213
0.00291442
0.00293717
0.00360188
0.00342214
0.00334291
0.00330599
0.00332236
0.00337167
0.00338452
0.00334085
0.00319864
0.00315163
0.00461413
0.00429755
0.00407792
0.00384236
0.00361098
0.00351229
0.00352105
0.00360014
0.0038348
0.00431668
0.00419267
0.00391905
0.00367831
0.00345313
0.00329179
0.00324378
0.00327684
0.00341979
0.00379255
0.00433762
0.00409281
0.00373684
0.00343645
0.00321623
0.00308184
0.00306045
0.00311693
0.00329685
0.00368329
0.00420636
0.00397563
0.00358037
0.00330169
0.00310643
0.0029943
0.00298283
0.00304384
0.00322098
0.00359782
0.00407724
0.00386177
0.0035184
0.00326644
0.00308512
0.00298196
0.0029707
0.00302608
0.00318846
0.0035266
0.00398191
0.00383646
0.003547
0.00332992
0.00317104
0.00308142
0.00306472
0.00309989
0.00320878
0.00348752
0.00393272
0.00393996
0.0036934
0.00349309
0.0033554
0.0032822
0.00326428
0.00328221
0.00333539
0.00351209
0.00393005
0.00413089
0.00389014
0.00371511
0.00361705
0.00357599
0.00357157
0.00357928
0.003582
0.00364481
0.00396308
0.00437419
0.00413874
0.00400291
0.00394399
0.00393796
0.00396294
0.00398092
0.00395241
0.00392677
0.00410122
0.00465931
0.00443415
0.00433911
0.00431128
0.00434086
0.00441642
0.00448742
0.00449067
0.00440427
0.00447419
0.00540065
0.00501908
0.00470324
0.00443195
0.00428472
0.00428223
0.00437088
0.00460109
0.00496181
0.00546717
0.00505044
0.0046952
0.00436167
0.00412645
0.00401131
0.00402061
0.00415392
0.00444361
0.00486913
0.00541741
0.00494661
0.00449182
0.00414593
0.00393862
0.00384617
0.00386372
0.004014
0.00431553
0.00474471
0.00525456
0.00480181
0.00435466
0.00405501
0.00386518
0.00378126
0.00379593
0.00393571
0.00421427
0.00462203
0.00508154
0.00472986
0.00431688
0.00404411
0.0038588
0.00377469
0.00378232
0.00390871
0.00416133
0.00453532
0.00498022
0.0047463
0.00440425
0.00416766
0.00397685
0.0038781
0.00386423
0.00394857
0.00415192
0.00450659
0.00494953
0.00490771
0.00463009
0.00439137
0.00418996
0.0040769
0.00405111
0.00410254
0.00424024
0.00454449
0.00499083
0.00517817
0.00491608
0.00467393
0.00448271
0.00437894
0.00435466
0.00439942
0.00448566
0.00467966
0.00507939
0.00552522
0.00525054
0.00501267
0.00484317
0.00476717
0.00476163
0.00483636
0.00493317
0.00503883
0.00530702
0.00594699
0.00563971
0.00540793
0.00526802
0.00521358
0.00523867
0.00536216
0.00552735
0.00567587
0.00585177
0.00556263
0.00516452
0.0048201
0.00459088
0.00450427
0.00454264
0.00471473
0.00500795
0.00538763
0.00586464
0.00526967
0.0048671
0.00451288
0.00431476
0.00424836
0.00429748
0.00449037
0.00479543
0.00517824
0.00565081
0.00511236
0.00463753
0.00431096
0.00414052
0.00408511
0.0041309
0.00432303
0.00462525
0.00500153
0.00545606
0.00496105
0.00452145
0.00423323
0.00406821
0.00401017
0.00404346
0.00421213
0.00449055
0.00485277
0.00527412
0.00491072
0.00449641
0.00422896
0.00405865
0.00399318
0.00401496
0.00416621
0.00442327
0.00477154
0.00518887
0.00496956
0.00460932
0.00437824
0.0041682
0.00406696
0.00405781
0.00417788
0.00441551
0.00475808
0.00517812
0.00516466
0.00486416
0.00463087
0.0043831
0.00423823
0.00421039
0.00430026
0.00450441
0.00482167
0.00524933
0.00545868
0.00519419
0.00493576
0.00466899
0.00451581
0.00448383
0.0045709
0.00474607
0.00499638
0.00537667
0.00585146
0.00556957
0.00527474
0.00501561
0.00489462
0.00487859
0.00499618
0.00518677
0.00539545
0.00567175
0.0063318
0.00598891
0.00566561
0.00544152
0.00534919
0.00535237
0.00550462
0.00574873
0.00600088
0.00621193
0.00365538
0.00354807
0.00344775
0.00338592
0.00336079
0.00335393
0.00336769
0.00344299
0.00358061
0.00375658
0.00355518
0.00341067
0.00330602
0.00326149
0.00325265
0.00324937
0.00326737
0.00334674
0.00347259
0.00363894
0.00349734
0.00332829
0.00323883
0.00319707
0.00318221
0.00318132
0.00321329
0.00328917
0.00340125
0.00353935
0.00344928
0.00328867
0.00320936
0.00316972
0.00315387
0.00315366
0.00318783
0.00325076
0.0033386
0.00343694
0.00343577
0.0032781
0.00320503
0.00316597
0.00314914
0.00314783
0.0031761
0.00322289
0.00329445
0.00338898
0.00346056
0.00331549
0.00325601
0.00319899
0.00316314
0.00315721
0.00317581
0.00321773
0.00329005
0.00338769
0.00354805
0.00341162
0.00336431
0.00327846
0.00320026
0.00318481
0.00319713
0.00324013
0.00331542
0.00342811
0.00370646
0.00354874
0.00351353
0.00338674
0.00326545
0.00323311
0.00324535
0.00329325
0.00336916
0.00349483
0.00390735
0.00374478
0.00367452
0.0035016
0.00336265
0.00332237
0.00333534
0.00339006
0.00346505
0.00358202
0.00412885
0.00399206
0.0038008
0.00361803
0.0034887
0.00344347
0.00344676
0.00350083
0.0035908
0.0036751
0.00241454
0.00240959
0.00240856
0.00239991
0.00234828
0.00230022
0.00228684
0.00230912
0.00234055
0.00237804
0.00238873
0.00235038
0.0023235
0.00232013
0.00228771
0.00224532
0.00224367
0.0022681
0.00230293
0.00235122
0.00237786
0.00231018
0.00227475
0.00225254
0.00222217
0.00220806
0.00221455
0.00224208
0.00227688
0.00231137
0.0023539
0.00227729
0.00223949
0.00221047
0.00218973
0.00218446
0.00219188
0.00221452
0.00224305
0.00226681
0.00233921
0.0022635
0.00222705
0.00220113
0.00218679
0.00218185
0.00218237
0.00219389
0.00221618
0.00224251
0.00233709
0.00226228
0.00222892
0.00220665
0.00219456
0.00218893
0.00218702
0.00219476
0.00221734
0.00224483
0.00235825
0.00228936
0.00226444
0.00223265
0.0022149
0.00221186
0.0022125
0.00222076
0.0022424
0.00226996
0.00241091
0.00234095
0.00232808
0.00228243
0.00224328
0.00223425
0.00223971
0.00224743
0.00226467
0.00229446
0.00249549
0.00242204
0.00239797
0.00233901
0.00228518
0.00225988
0.00226239
0.00227001
0.00228597
0.00231677
0.00258283
0.00252416
0.00243048
0.00237096
0.00232339
0.00229211
0.00229373
0.00230766
0.00232274
0.00234206
0.00186932
0.00187317
0.00188606
0.00188654
0.00182147
0.00179765
0.00179951
0.00180808
0.00181333
0.00182695
0.0018676
0.00185586
0.00185121
0.001855
0.00179205
0.00176803
0.00176955
0.00177898
0.00179074
0.0018162
0.00187819
0.00185281
0.00183468
0.00180898
0.00175608
0.00174403
0.00174871
0.00176335
0.00178194
0.00180839
0.00187074
0.00182983
0.0018034
0.00176726
0.0017357
0.00172869
0.00173401
0.00175176
0.00177416
0.00179868
0.00184291
0.00180481
0.00177741
0.00174899
0.00173281
0.00172809
0.00172914
0.00174076
0.00175963
0.00178005
0.00183188
0.00179375
0.0017675
0.00174811
0.00173776
0.00173362
0.00173338
0.00174258
0.00175856
0.00177606
0.00183276
0.00179793
0.00177947
0.00176435
0.0017564
0.0017527
0.00175209
0.00175911
0.00177396
0.0017926
0.00185029
0.00182432
0.00181093
0.00179203
0.00178051
0.00177498
0.00177271
0.00177491
0.0017848
0.0018041
0.00188803
0.00187674
0.001859
0.00183078
0.0018066
0.00179551
0.00179073
0.00178945
0.00179303
0.00181005
0.00195325
0.00193454
0.00188775
0.00186097
0.00184201
0.00181775
0.0018145
0.00181682
0.00181868
0.00182505
0.00161706
0.0016093
0.00160952
0.00161785
0.00159546
0.00156863
0.00157036
0.00158235
0.00158739
0.00159708
0.00161376
0.00159838
0.0015965
0.00160036
0.00156668
0.00154534
0.00154559
0.00155581
0.00156564
0.00158681
0.00161578
0.00159822
0.00158967
0.00158283
0.00154435
0.0015275
0.00152805
0.00154011
0.00155609
0.00158156
0.00162245
0.00160079
0.00158493
0.00156587
0.0015297
0.00151641
0.00151643
0.001527
0.00154578
0.00157168
0.00163108
0.00160069
0.00157794
0.00155103
0.00152433
0.00151599
0.00151534
0.00152191
0.00153674
0.00155882
0.00162464
0.00159134
0.00156393
0.00154045
0.0015246
0.00151848
0.00151769
0.00152436
0.00153748
0.00155696
0.00160584
0.0015797
0.00155918
0.00154298
0.0015324
0.00152794
0.00152676
0.00153138
0.00154325
0.00156182
0.00160905
0.00159163
0.00157618
0.00156474
0.00155626
0.00154577
0.00154114
0.00154199
0.00155368
0.00157448
0.00164058
0.00162914
0.00160913
0.00159328
0.00158159
0.00156548
0.0015582
0.00155808
0.00156575
0.00158224
0.00169606
0.00167025
0.00164465
0.00162682
0.00161347
0.00159103
0.00158134
0.00158291
0.00158728
0.00159378
0.00149069
0.00148059
0.00147045
0.00146482
0.00145441
0.00144251
0.00144517
0.0014577
0.00146598
0.00147622
0.00148523
0.0014697
0.00145906
0.0014551
0.00144209
0.00142984
0.00142992
0.00143877
0.00144916
0.00146556
0.0014843
0.00146538
0.00145297
0.00144802
0.00143217
0.00141978
0.00141875
0.00142564
0.00143737
0.00145533
0.00148425
0.00146509
0.00145231
0.00144375
0.00142547
0.00141431
0.00141247
0.00141632
0.00142612
0.0014404
0.00148616
0.00146738
0.00145492
0.00144162
0.00142328
0.00141521
0.00141338
0.00141531
0.00142265
0.00143408
0.00149566
0.00147502
0.00145654
0.00143881
0.00142424
0.00141787
0.00141595
0.00141782
0.00142449
0.00143479
0.00149569
0.00147377
0.00145498
0.00143938
0.00142866
0.00142379
0.00142167
0.00142192
0.00142798
0.00143927
0.00149318
0.00147602
0.00146023
0.00145003
0.00144462
0.00143743
0.00143091
0.00142995
0.00143725
0.00145128
0.00151327
0.00149704
0.00148301
0.00147387
0.0014659
0.00145244
0.00144262
0.00144193
0.00144935
0.00146142
0.00154924
0.00152957
0.00151341
0.00149837
0.00148847
0.00147361
0.00145738
0.00145766
0.00146609
0.00147301
0.00142999
0.00142072
0.00141136
0.00140283
0.00139561
0.00139094
0.0013932
0.00140003
0.0014074
0.00141579
0.0014272
0.00141558
0.00140564
0.00139729
0.00138987
0.00138445
0.00138442
0.00138907
0.00139611
0.00140665
0.00142592
0.00141305
0.00140188
0.0013932
0.00138497
0.00137888
0.0013779
0.00138128
0.0013877
0.00139776
0.00142619
0.00141269
0.0014005
0.00139114
0.00138181
0.0013759
0.00137431
0.00137597
0.00138123
0.00138887
0.00142772
0.00141365
0.00140151
0.0013915
0.00138187
0.00137665
0.00137494
0.00137546
0.00137937
0.00138514
0.00143474
0.00141926
0.00140552
0.00139297
0.00138369
0.00137925
0.00137746
0.00137762
0.00138095
0.0013865
0.00143843
0.00142285
0.00140784
0.00139588
0.00138873
0.00138537
0.00138246
0.00138181
0.00138503
0.0013915
0.00143933
0.00142616
0.00141259
0.00140418
0.00140068
0.00139604
0.00139016
0.0013886
0.00139176
0.00139874
0.00145941
0.00144228
0.00142869
0.0014215
0.001416
0.00140862
0.0013994
0.00139703
0.00140001
0.00140666
0.00147239
0.00145922
0.0014475
0.00143741
0.00142934
0.0014215
0.0014097
0.00140674
0.00141045
0.00141542
0.00142553
0.00141654
0.00140941
0.00140168
0.00139364
0.00138901
0.00139131
0.00139717
0.00140245
0.00140954
0.00142449
0.00141272
0.00140394
0.00139594
0.00138797
0.00138278
0.00138315
0.00138681
0.00139232
0.00140179
0.00142485
0.00141217
0.00140136
0.00139184
0.00138318
0.00137778
0.00137704
0.00137985
0.00138557
0.00139527
0.00142608
0.00141272
0.00139981
0.00138868
0.0013798
0.00137476
0.00137341
0.00137514
0.00137997
0.00138747
0.00142856
0.00141325
0.00139922
0.00138783
0.0013794
0.00137468
0.00137306
0.0013738
0.0013774
0.00138302
0.00143164
0.00141554
0.00140042
0.00138921
0.00138153
0.00137744
0.00137572
0.00137608
0.00137944
0.0013848
0.0014345
0.00141857
0.00140564
0.00139353
0.00138729
0.00138339
0.00138115
0.0013811
0.00138451
0.00139056
0.00144168
0.00142546
0.00141281
0.00140334
0.00139827
0.00139291
0.00138882
0.00138804
0.00139061
0.00139684
0.0014565
0.00144101
0.00142842
0.00141853
0.00141138
0.00140519
0.00139801
0.00139644
0.00139792
0.00140276
0.00146479
0.00145282
0.00144104
0.00143151
0.00142269
0.00141542
0.00140742
0.00140637
0.00140807
0.001411
0.0617613
0.0604692
0.060049
0.0596246
0.058322
0.0583236
0.0596268
0.060051
0.0604749
0.0617678
0.0604703
0.0583139
0.0573058
0.0568088
0.0563666
0.0563657
0.0568107
0.057312
0.0583127
0.0604683
0.0600509
0.0573063
0.0561894
0.0557088
0.0554952
0.0554998
0.0557083
0.0561772
0.0572969
0.0600456
0.0596264
0.0568092
0.0557084
0.0552392
0.055043
0.0550283
0.0552243
0.0556941
0.0567976
0.0596199
0.0583229
0.0563653
0.0554994
0.0550296
0.0548268
0.0548251
0.0550246
0.05548
0.0563537
0.0583161
0.0583269
0.0563593
0.0554808
0.0550244
0.0548249
0.054825
0.0550246
0.0554804
0.0563493
0.0582874
0.0596208
0.0567967
0.055694
0.0552217
0.0550244
0.0550224
0.0552162
0.0556598
0.0567205
0.0594474
0.0600466
0.0572956
0.0561756
0.0556898
0.0554745
0.0554336
0.0556256
0.0559422
0.0570862
0.0598994
0.0604705
0.0583037
0.0572922
0.0567423
0.0562886
0.0561206
0.0565692
0.0571
0.0581308
0.0603206
0.0617725
0.0604262
0.0599944
0.0594582
0.0580784
0.0581279
0.0594793
0.0598977
0.0603207
0.0616328
0.0551629
0.054485
0.0543042
0.0541521
0.0537329
0.0537333
0.054153
0.0543051
0.0544871
0.0551654
0.0544854
0.0536516
0.0532575
0.0530387
0.0529014
0.0529011
0.0530393
0.0532593
0.053651
0.0544889
0.0543049
0.0532576
0.0527888
0.0525383
0.0524239
0.0524251
0.0525379
0.0527875
0.0532575
0.0543078
0.0541527
0.0530387
0.0525381
0.0522672
0.0521456
0.0521427
0.0522646
0.0525362
0.0530383
0.0541551
0.0537331
0.052901
0.052425
0.052143
0.0520149
0.0520146
0.0521421
0.0524214
0.0529003
0.0537345
0.0537343
0.0529008
0.0524214
0.052142
0.0520146
0.0520147
0.0521423
0.0524222
0.0529009
0.0537388
0.0541548
0.0530381
0.0525362
0.0522644
0.0521423
0.0521431
0.0522653
0.0525424
0.0530564
0.0542762
0.0543078
0.0532579
0.0527877
0.0525373
0.0524227
0.0524321
0.0525509
0.0529
0.0533641
0.0544144
0.0544898
0.0536546
0.0532593
0.0530518
0.0529145
0.0530114
0.0531515
0.0533604
0.0537568
0.0545989
0.0551696
0.054504
0.0543222
0.0542694
0.053852
0.0538367
0.0542621
0.0544151
0.054599
0.0552782
0.0507841
0.0505314
0.0504176
0.0503396
0.0502506
0.0502507
0.0503398
0.0504179
0.0505321
0.0507846
0.0505315
0.0502186
0.0500362
0.0499263
0.0498697
0.0498697
0.0499266
0.0500364
0.0502185
0.0505396
0.0504177
0.0500362
0.0498136
0.0496811
0.0496192
0.0496192
0.0496809
0.0498185
0.0500418
0.0504252
0.0503397
0.0499263
0.0496811
0.0495333
0.0494641
0.0494681
0.0495375
0.049686
0.0499321
0.0503468
0.0502506
0.0498696
0.0496192
0.049468
0.049395
0.0493952
0.0494684
0.0496238
0.0498752
0.0502574
0.0502503
0.0498742
0.0496236
0.0494683
0.0493952
0.0493953
0.0494685
0.0496241
0.0498756
0.0502594
0.0503468
0.049932
0.049686
0.0495379
0.0494685
0.0494691
0.0495386
0.0496879
0.0499348
0.050361
0.0504251
0.0500425
0.049819
0.0496869
0.0496248
0.0496256
0.0496885
0.0498352
0.0500549
0.0504331
0.0505398
0.0502265
0.0500436
0.0499337
0.0498772
0.0498905
0.0499471
0.0500529
0.0502363
0.0505486
0.0507934
0.0505411
0.0504272
0.0503577
0.0502741
0.0502674
0.0503545
0.0504333
0.0505486
0.0508018
0.0475534
0.0474562
0.0473989
0.0473614
0.0473365
0.0473365
0.0473615
0.047399
0.0474564
0.0475534
0.0474562
0.0473273
0.0472425
0.0471888
0.0471626
0.0471626
0.0471889
0.0472423
0.0473273
0.0474637
0.0473989
0.0472425
0.0471376
0.0470714