/*--------------------------------*- C++ -*----------------------------------*\
  =========                 |
  \\      /  F ield         | OpenFOAM: The Open Source CFD Toolbox
   \\    /   O peration     | Website:  https://openfoam.org
    \\  /    A nd           | Version:  9
     \\/     M anipulation  |
\*---------------------------------------------------------------------------*/
FoamFile
{
    format      ascii;
    class       volScalarField;
    location    "1";
    object      f9.gas;
}
// * * * * * * * * * * * * * * * * * * * * * * * * * * * * * * * * * * * * * //

dimensions      [0 0 0 0 0 0 0];

internalField   nonuniform List<scalar> 
137980
(
0.016353
0.0176543
0.0170425
0.016451
0.0164773
0.0165467
0.0166466
0.0168198
0.0169112
0.0173602
0.0180225
0.0176025
0.0173481
0.0167296
0.01589
0.0159744
0.0162059
0.0164082
0.0168253
0.0176599
0.0171716
0.0168809
0.016191
0.0160594
0.0160428
0.0162222
0.0161927
0.0162819
0.0167689
0.0170852
0.0163975
0.0153233
0.015336
0.0156198
0.0158021
0.016231
0.0161142
0.0157131
0.0154215
0.015376
0.0148523
0.0145503
0.0148878
0.0151248
0.0154146
0.0160453
0.0160375
0.015504
0.0147255
0.0146178
0.0144422
0.0146772
0.0149583
0.0149089
0.0154402
0.0158133
0.015752
0.0151379
0.0144779
0.0152153
0.0147293
0.0153551
0.0153504
0.015212
0.0152778
0.0154099
0.0155725
0.0152556
0.0150065
0.0165384
0.0158133
0.0161807
0.0157205
0.0151605
0.0145374
0.014664
0.0155931
0.015726
0.0157709
0.0168976
0.0158448
0.0162645
0.0156824
0.0145478
0.0136903
0.0139961
0.0146676
0.0159796
0.0162351
0.0164055
0.0162288
0.0165261
0.0154213
0.0144409
0.0135682
0.0137723
0.0142194
0.0151834
0.0159386
0.0163158
0.0123011
0.0128564
0.0128587
0.0127848
0.0127265
0.0127699
0.0128441
0.0131273
0.013313
0.0129659
0.0132057
0.0130868
0.0130888
0.0130357
0.013156
0.0134327
0.0138223
0.0140087
0.013944
0.0134789
0.0131728
0.0131103
0.0131961
0.0132227
0.0132459
0.013551
0.0139201
0.0140721
0.0140229
0.0138017
0.0127544
0.0129422
0.0131129
0.0131574
0.0131669
0.0134705
0.0137029
0.0137895
0.0137475
0.0135206
0.0125136
0.0127346
0.0130133
0.0130267
0.0130303
0.0132637
0.0133793
0.0133979
0.0133835
0.0133021
0.0124426
0.0127726
0.0129978
0.0129777
0.0129683
0.0130282
0.013108
0.0131068
0.0131169
0.013196
0.0127575
0.0131497
0.0130931
0.0128773
0.0128715
0.0129022
0.0128785
0.0128879
0.012885
0.0130852
0.0131522
0.0131781
0.0129037
0.0127738
0.0128366
0.0128628
0.0128586
0.0128648
0.01284
0.0129136
0.0129883
0.0129597
0.0127716
0.0126941
0.0126841
0.0128112
0.0127661
0.0128776
0.0128973
0.0129325
0.0124747
0.0123959
0.0124117
0.0124745
0.0125244
0.0127261
0.0127144
0.0129311
0.0128251
0.0128408
0.011438
0.0112466
0.0112551
0.0112377
0.0112049
0.0111803
0.0111787
0.0112012
0.0111951
0.0112663
0.0112821
0.0113465
0.0113265
0.0112966
0.011239
0.0112043
0.0112038
0.0112238
0.0111735
0.0112111
0.0114334
0.0114163
0.0113449
0.0112998
0.0112385
0.0112048
0.0111778
0.0111394
0.0111452
0.011311
0.011475
0.0114376
0.0113304
0.0112518
0.0111668
0.0111182
0.0110677
0.0110669
0.0111512
0.0113489
0.011471
0.0113509
0.0112233
0.0111669
0.0111449
0.0110985
0.0110556
0.0110565
0.0111178
0.0113634
0.0112641
0.0112435
0.0112591
0.0112512
0.0111902
0.0111151
0.0110819
0.0110963
0.0111656
0.0112076
0.0112842
0.0113255
0.011349
0.011282
0.0111953
0.0111542
0.0111812
0.0112728
0.0113349
0.0112986
0.0113926
0.0114558
0.0113338
0.011244
0.0111821
0.0112048
0.011358
0.0114253
0.0114004
0.0113785
0.0114233
0.0113507
0.0112174
0.011218
0.0112027
0.0113538
0.0114843
0.0114696
0.0113642
0.0113444
0.0111881
0.0111404
0.0112194
0.011224
0.0112772
0.0114825
0.0115175
0.0114507
0.0112149
0.011252
0.011026
0.0111353
0.0112512
0.0112896
0.0112923
0.0112219
0.0110259
0.0110016
0.0109858
0.0109377
0.0110053
0.0110717
0.0111609
0.0111624
0.0110908
0.0109881
0.010999
0.0110244
0.0110141
0.0109711
0.0109669
0.0109718
0.0109912
0.0109768
0.0110079
0.0110739
0.0110808
0.0110581
0.0110217
0.0109876
0.0109656
0.0109528
0.0109653
0.0110799
0.0111524
0.0111449
0.0111064
0.011056
0.0110061
0.0109951
0.0110531
0.0110699
0.0111384
0.0112255
0.01121
0.0111667
0.0110929
0.0110241
0.0109854
0.0109798
0.0112332
0.011252
0.0113152
0.0112868
0.0112262
0.0111436
0.0110501
0.0110045
0.0109772
0.0109703
0.011422
0.0114371
0.0113957
0.011288
0.0111838
0.0110929
0.0110313
0.0110007
0.0109749
0.0109626
0.011566
0.0115066
0.0113309
0.0111928
0.0111508
0.0110771
0.0110334
0.0110055
0.0109808
0.0109673
0.0115853
0.0113413
0.0111821
0.0111787
0.0111567
0.0110853
0.0110705
0.011046
0.0110193
0.0110132
0.0112875
0.0110069
0.0111934
0.0112363
0.0112166
0.0111554
0.0111694
0.0110838
0.0111311
0.0111397
0.0108375
0.0107313
0.0106696
0.010659
0.0106685
0.0107002
0.0107623
0.0107853
0.0107908
0.0107903
0.010908
0.0107763
0.0107103
0.01071
0.0107357
0.0107864
0.0107861
0.0107661
0.0107388
0.0107365
0.0109548
0.0107389
0.0107193
0.0107379
0.0108057
0.0107943
0.010765
0.0106895
0.0106609
0.0106671
0.0110272
0.0107508
0.0107475
0.0108038
0.0108002
0.0107746
0.010713
0.0106413
0.0106367
0.010653
0.0111073
0.0108206
0.0108023
0.0108035
0.0107966
0.0107699
0.0106945
0.0106376
0.0106433
0.0106966
0.0111658
0.0109603
0.0109192
0.0108974
0.0108486
0.0107874
0.0106811
0.0106563
0.0107079
0.0107905
0.0112471
0.0111308
0.0110649
0.0109386
0.0108611
0.0107517
0.0106742
0.0107131
0.0108358
0.0108273
0.0112794
0.0112149
0.011024
0.0108598
0.0108148
0.0107196
0.0107037
0.0108723
0.0108931
0.0108458
0.0112641
0.0110308
0.0107704
0.0108266
0.0108251
0.0107291
0.0109084
0.0109498
0.0109493
0.0108554
0.0111747
0.0105852
0.0107315
0.0109295
0.0109874
0.010935
0.0110076
0.0110193
0.0109889
0.0108837
0.00982474
0.00984146
0.00988162
0.0100024
0.0102234
0.010434
0.0105494
0.0105974
0.0105894
0.010622
0.00987302
0.00992952
0.0100923
0.0102848
0.0104245
0.0105153
0.0105612
0.0105502
0.0104886
0.0104817
0.00996251
0.0100251
0.0102071
0.0103661
0.0104665
0.0105181
0.0105095
0.0104712
0.0103861
0.0103603
0.0100385
0.0101336
0.0102777
0.0104044
0.0104668
0.0104652
0.0104405
0.0104095
0.0103523
0.0103368
0.0102936
0.0103807
0.0104411
0.0104679
0.0104688
0.0104519
0.0104212
0.0103999
0.0103492
0.0103404
0.0107531
0.0107087
0.01066
0.010615
0.0105791
0.0105051
0.0104714
0.0104146
0.0103612
0.010351
0.0108774
0.0108199
0.010752
0.01069
0.0106289
0.0105502
0.0104994
0.0104139
0.0103654
0.0103487
0.010858
0.0108148
0.0107504
0.0106972
0.0106068
0.0105494
0.0104394
0.0103542
0.0103383
0.010323
0.0107221
0.0106822
0.010601
0.0104884
0.0104178
0.0103337
0.0103015
0.0103224
0.0103221
0.010313
0.0103103
0.0101224
0.010069
0.0101235
0.0102351
0.0102472
0.0102701
0.0103127
0.0103098
0.0103081
0.00939726
0.00939511
0.00936472
0.00925618
0.00926433
0.00942864
0.00990364
0.0102164
0.0102732
0.0103373
0.00923138
0.00930239
0.00928641
0.0092319
0.00925975
0.00945357
0.00986517
0.010094
0.010117
0.0101879
0.00898088
0.00909234
0.00912854
0.00915906
0.00925717
0.00953402
0.00983977
0.00997333
0.00997149
0.00995236
0.00900273
0.00901855
0.00905254
0.0091197
0.00928569
0.00951883
0.00968819
0.00975668
0.00975878
0.00975503
0.00905444
0.00902161
0.00904187
0.00909797
0.00922518
0.0093944
0.00954116
0.00962114
0.00965456
0.00968385
0.00943502
0.00929186
0.00929168
0.0093252
0.00941393
0.00952437
0.00959317
0.0096253
0.00965406
0.00969577
0.00991546
0.00979332
0.00970427
0.00971
0.00973652
0.00975451
0.00975461
0.00974703
0.00974541
0.00975581
0.0101162
0.0100256
0.0099682
0.00994516
0.00990659
0.00986691
0.00982237
0.00979548
0.00977288
0.0097719
0.0101537
0.010091
0.0100492
0.00999095
0.00992651
0.00987179
0.00981137
0.00978467
0.00973998
0.00973055
0.0101361
0.0100792
0.0098998
0.00970552
0.00958353
0.00955933
0.00957844
0.00955442
0.00951187
0.00948424
0.00856691
0.00829299
0.00808616
0.00809535
0.00823399
0.00867628
0.00917339
0.00929888
0.00938411
0.0095737
0.00850617
0.00839321
0.0081812
0.00812993
0.00818723
0.00848235
0.00901323
0.0091831
0.00913763
0.00932318
0.00835605
0.0083665
0.00828907
0.00815368
0.00817861
0.00841383
0.0088902
0.00902096
0.00901109
0.00894196
0.00824801
0.00827981
0.00822866
0.00812015
0.00815222
0.00839023
0.00873405
0.00879122
0.00875027
0.00870401
0.0080259
0.00802928
0.00801176
0.00801232
0.00809137
0.0083722
0.00854992
0.00855019
0.00855895
0.00863733
0.0081902
0.00798697
0.0079613
0.00798664
0.00807365
0.00825491
0.00834386
0.00839654
0.00850098
0.00875869
0.00868507
0.00822176
0.00806044
0.00805087
0.00808951
0.0081518
0.00826289
0.00836276
0.00858278
0.00884564
0.00917389
0.00883042
0.00850759
0.00830562
0.0082468
0.00826061
0.00831224
0.00842312
0.00868964
0.00888411
0.00937625
0.00919164
0.00899277
0.00883137
0.00869884
0.00859825
0.00860318
0.00865045
0.00879436
0.00890263
0.0094801
0.00937027
0.00925849
0.00913714
0.00904037
0.00893613
0.008854
0.00885598
0.00889124
0.00891284
0.00788705
0.00770927
0.0074855
0.00738796
0.00748852
0.00763043
0.00774998
0.00791015
0.00816665
0.00840004
0.00796904
0.00779229
0.00746832
0.00733416
0.0074113
0.00753542
0.00760527
0.00764278
0.00776246
0.00798475
0.00792159
0.00778064
0.00746127
0.00729904
0.00736336
0.00746295
0.00750984
0.0075232
0.00762391
0.0077963
0.00781661
0.0076455
0.00735244
0.00728404
0.00731917
0.00736128
0.00737917
0.00742548
0.00756678
0.00772526
0.00761227
0.0074351
0.00732278
0.00728806
0.00729604
0.00730575
0.00732223
0.00740024
0.0075807
0.00775808
0.0076602
0.00750147
0.00739603
0.00733531
0.00731105
0.00730421
0.00733159
0.00746992
0.0077167
0.00794081
0.00798909
0.00775306
0.00761842
0.00752328
0.00745322
0.00741966
0.00744545
0.0076191
0.00787193
0.00810587
0.0085151
0.00821471
0.00794153
0.00775493
0.00765365
0.00758051
0.00758649
0.0077919
0.00803098
0.00820468
0.00877628
0.00854661
0.00831813
0.00808214
0.00789596
0.00774856
0.00770788
0.00797744
0.0081811
0.00828588
0.00897857
0.00879165
0.00860166
0.00838965
0.00815271
0.00792364
0.00783375
0.00811211
0.00824652
0.00828086
0.00805695
0.00766607
0.00745109
0.0071764
0.00706599
0.0070587
0.00705325
0.00710435
0.00721825
0.00745164
0.00797359
0.00763921
0.00731573
0.00707767
0.00698615
0.00697542
0.00695947
0.00699747
0.00711521
0.00732474
0.00780122
0.00759229
0.00727677
0.00706462
0.00695379
0.00691139
0.00687903
0.00691482
0.00703681
0.00724533
0.00756662
0.00744093
0.00721346
0.00704338
0.00693435
0.00687052
0.00684042
0.00687828
0.00700652
0.0072151
0.00755239
0.00736456
0.00719209
0.00704528
0.00693829
0.00686555
0.00684148
0.00688381
0.00701265
0.00723039
0.00794366
0.007575
0.00732758
0.0071556
0.00703929
0.0069521
0.0069139
0.00694655
0.00705794
0.00730734
0.0083886
0.00809924
0.00779599
0.00752319
0.00731209
0.0071639
0.00705508
0.0070626
0.00714915
0.00742996
0.00863299
0.00841411
0.0081856
0.00792731
0.00767322
0.00745926
0.00726149
0.00721217
0.00727615
0.00757666
0.00882774
0.00862793
0.00843752
0.00824557
0.00800405
0.0077944
0.00755257
0.0073927
0.00741455
0.00768797
0.00887944
0.00867114
0.00847217
0.00831564
0.00812581
0.0079674
0.00778127
0.00758742
0.00757622
0.00773754
0.00811366
0.00788778
0.00755442
0.00720785
0.00697241
0.0068735
0.0068792
0.00693097
0.00706475
0.00724467
0.00785851
0.00753385
0.00716553
0.00689293
0.00674335
0.00669533
0.0067139
0.00677983
0.00691793
0.00716679
0.0075135
0.00721067
0.0069392
0.00675274
0.00664725
0.00661498
0.00663906
0.0067121
0.00685184
0.00710449
0.00741315
0.00712594
0.00689389
0.00673678
0.00663892
0.00660004
0.00662197
0.00669454
0.00683224
0.00708315
0.00765695
0.00732191
0.00707691
0.00690739
0.00678862
0.00670704
0.00671062
0.0067583
0.00687224
0.00709654
0.0080198
0.00766307
0.00737845
0.00715731
0.00699963
0.00687956
0.00683991
0.00686876
0.00695648
0.00714161
0.00836032
0.00801828
0.00770018
0.00743496
0.0072266
0.00708686
0.00700051
0.00701429
0.00708426
0.0072603
0.00852812
0.00821607
0.00791865
0.00765525
0.00741765
0.00725291
0.00714704
0.00715594
0.00722454
0.00743185
0.00850933
0.00821387
0.00794397
0.00770841
0.00749482
0.0073389
0.00725819
0.00727966
0.00737663
0.00765992
0.00832893
0.0080967
0.00789327
0.007716
0.00756619
0.00744809
0.00740178
0.00743804
0.00757377
0.00789941
0.00810846
0.00785699
0.00752835
0.00723536
0.00702509
0.00690973
0.00691365
0.00696665
0.0071022
0.00729174
0.00768799
0.00740664
0.00711476
0.00687168
0.0067152
0.00663958
0.0066542
0.00672021
0.00686701
0.00715005
0.00743361
0.00711537
0.00686802
0.00668885
0.00657138
0.00651098
0.00652757
0.00659615
0.0067552
0.00708638
0.00734175
0.00704415
0.00681553
0.00665054
0.00653797
0.00647353
0.00648587
0.00655107
0.00671464
0.00706827
0.00746147
0.00715189
0.00691952
0.00674099
0.00661213
0.00652057
0.00650739
0.00655675
0.00671754
0.00707882
0.00764689
0.00733843
0.00709875
0.00689466
0.00673587
0.00662826
0.00659938
0.00663958
0.00677278
0.00709403
0.00780974
0.00748973
0.00725669
0.00705597
0.00688893
0.00677433
0.00673616
0.00677325
0.00688452
0.00716339
0.00788421
0.00758772
0.00739377
0.0072153
0.00705813
0.00695495
0.00691984
0.00696081
0.00706587
0.00731799
0.0079217
0.00771125
0.0075492
0.00738917
0.00726565
0.00719561
0.0071651
0.00720162
0.00731019
0.00758623
0.00801154
0.00791095
0.00775347
0.00763783
0.00756798
0.00754308
0.00751586
0.00750879
0.00758828
0.00780399
0.00856358
0.00837182
0.00807907
0.00786359
0.00768806
0.00754998
0.00746333
0.00747153
0.00754099
0.0077371
0.00802521
0.00783586
0.0076036
0.00739224
0.00719977
0.00703723
0.00700858
0.00705304
0.0072124
0.00762141
0.00769922
0.00741499
0.00717556
0.00696091
0.00678067
0.00668914
0.00670309
0.00679108
0.00702529
0.00753978
0.00758002
0.00724745
0.00696577
0.00674978
0.00660004
0.00653793
0.00656074
0.00665821
0.00690742
0.00746234
0.00758241
0.00724624
0.00695516
0.0067339
0.00658093
0.00650778
0.00652501
0.00661117
0.00684407
0.0073633
0.00773539
0.00741222
0.00711438
0.0068779
0.0067096
0.00660446
0.00660645
0.00666179
0.00683855
0.0072631
0.00791902
0.00760683
0.00731666
0.00708486
0.0069136
0.00680167
0.00677262
0.00680716
0.00692536
0.0072445
0.0081358
0.00782575
0.00755195
0.00734018
0.00718436
0.00708691
0.00703428
0.00704942
0.00712089
0.00732358
0.00836393
0.00805554
0.00781716
0.0076438
0.00752416
0.00745763
0.00741516
0.00739655
0.00742784
0.00753029
0.00858514
0.00830374
0.00812215
0.00800038
0.00793007
0.00791911
0.00791558
0.00786774
0.0078459
0.00784259
0.00967179
0.00929651
0.00897938
0.00871771
0.00843183
0.00818408
0.00813871
0.00819902
0.00846169
0.00906578
0.00911589
0.00872405
0.00839419
0.00810602
0.0078257
0.00767514
0.00769192
0.00782849
0.00826367
0.00903419
0.00883215
0.00840396
0.00801748
0.00767771
0.0074211
0.00732671
0.00737014
0.0075569
0.00804102
0.00877747
0.00855246
0.00808758
0.0076984
0.00740487
0.00721013
0.00715027
0.0072006
0.00737915
0.00782199
0.00850689
0.00842639
0.00796327
0.00760502
0.00734078
0.00716444
0.00710308
0.00714522
0.00730025
0.00765941
0.00827826
0.00848417
0.00804951
0.00770969
0.007455
0.00728585
0.00720101
0.00722356
0.00732888
0.0075928
0.00814071
0.00868308
0.00826498
0.00794208
0.00770347
0.00754715
0.00745668
0.00746029
0.00751926
0.00769352
0.0081187
0.00893305
0.0085274
0.00823509
0.00803266
0.00790915
0.00785792
0.00783683
0.00786216
0.00795135
0.0082145
0.00921328
0.00883581
0.00859047
0.00843543
0.00836606
0.00836841
0.00837666
0.0083603
0.00837521
0.00848737
0.00953379
0.00919129
0.00900224
0.00890337
0.00890285
0.00897778
0.00903855
0.00902101
0.00893075
0.00893625
0.0117458
0.0112442
0.0108534
0.01047
0.0101244
0.00999231
0.0100281
0.0102055
0.0106451
0.0113977
0.0111408
0.0106296
0.0101808
0.00978354
0.00950257
0.0094298
0.00951002
0.0097943
0.0104302
0.0112948
0.0109189
0.0102749
0.00972326
0.00929743
0.00903166
0.00899718
0.00912489
0.00949585
0.0101826
0.0110328
0.0106862
0.00998173
0.00943867
0.00903698
0.00880412
0.00878581
0.00892388
0.00929976
0.00998477
0.0107985
0.0105085
0.00986029
0.00935051
0.00896774
0.00874783
0.00872853
0.00885746
0.00921195
0.00984033
0.0106224
0.0104753
0.00989792
0.00943409
0.00908227
0.00888026
0.00885201
0.00894897
0.00921765
0.00977761
0.0105364
0.01064
0.0101173
0.00969116
0.00938494
0.00921613
0.00918999
0.00925857
0.00943919
0.00983957
0.0105555
0.0109213
0.0104222
0.0100511
0.00981977
0.00971424
0.00971289
0.00976836
0.00987405
0.010094
0.0106767
0.011272
0.0108122
0.0105128
0.0103591
0.0103221
0.0103649
0.0104445
0.0105046
0.0105949
0.0109803
0.0116813
0.011278
0.0110571
0.0109714
0.0109925
0.0111046
0.0112491
0.0113454
0.0113799
0.0115974
0.0132937
0.0127092
0.012213
0.0117936
0.0115592
0.011562
0.0117302
0.0121315
0.0127086
0.0134618
0.0127692
0.0121806
0.011639
0.0112363
0.0110332
0.0110533
0.0112861
0.0117703
0.0124312
0.0132346
0.0125192
0.0118058
0.0112253
0.0108468
0.0106704
0.0106988
0.0109643
0.0114763
0.0121544
0.0129235
0.0122706
0.0115621
0.0110323
0.0106725
0.0105047
0.0105247
0.0107685
0.0112425
0.0118965
0.0126177
0.0121667
0.0114934
0.0109953
0.0106385
0.0104674
0.0104738
0.0106953
0.0111229
0.0117264
0.0124287
0.0122319
0.0116401
0.0111762
0.0108055
0.0106078
0.0105802
0.0107428
0.0111044
0.0116773
0.0123727
0.0125184
0.0119943
0.0115331
0.0111498
0.0109299
0.0108807
0.0109951
0.0112696
0.0117735
0.0124599
0.0129399
0.0124326
0.0119796
0.0116157
0.0114079
0.0113573
0.0114573
0.0116675
0.0120419
0.0126662
0.0134363
0.0129256
0.0124964
0.0121707
0.0120047
0.0119759
0.0121033
0.0123157
0.0125771
0.0130633
0.0139915
0.0134894
0.0130846
0.0128074
0.0126833
0.012687
0.0128653
0.0131396
0.0134322
0.0137909
0.0136415
0.0130275
0.012501
0.0121235
0.0119614
0.0120215
0.0123144
0.0127994
0.0133958
0.0141102
0.0131558
0.0125239
0.0119558
0.0115992
0.0114687
0.0115448
0.0118726
0.0123801
0.0129867
0.013697
0.0128385
0.0121178
0.0115609
0.0112352
0.0111195
0.0111951
0.0115222
0.0120263
0.0126279
0.013324
0.0125885
0.0119009
0.0113877
0.0110662
0.0109446
0.0109926
0.0112744
0.0117342
0.0123174
0.0129818
0.0125112
0.0118507
0.0113608
0.0110293
0.0108941
0.0109209
0.0111695
0.0115889
0.0121493
0.0128074
0.0126396
0.0120359
0.0115793
0.0111882
0.0109962
0.0109781
0.0111818
0.0115741
0.0121234
0.0127797
0.0129826
0.0124446
0.0119888
0.011541
0.0112803
0.0112295
0.0113925
0.0117437
0.0122604
0.0129151
0.0134666
0.0129606
0.0124786
0.0120087
0.0117262
0.0116618
0.0118137
0.012131
0.0125741
0.0131769
0.0140566
0.0135221
0.0130084
0.0125555
0.0123099
0.0122581
0.0124309
0.0127514
0.0131351
0.013628
0.0147087
0.0141254
0.0136042
0.0131955
0.0129935
0.0129607
0.0131638
0.0135248
0.0139304
0.0143225
0.00990574
0.00969729
0.00951608
0.00939485
0.00933468
0.00931412
0.00935032
0.00951231
0.00978441
0.0101277
0.00969069
0.00943836
0.00924233
0.00914526
0.00911163
0.00909897
0.00914129
0.00929982
0.00955162
0.00988107
0.00955397
0.0092782
0.00910003
0.00900852
0.00896862
0.0089621
0.00901478
0.00915431
0.00937386
0.00965282
0.00946782
0.0091933
0.00903005
0.00894436
0.00890494
0.0088988
0.00894486
0.00905027
0.00921754
0.00942601
0.00944874
0.00916813
0.00901303
0.00892883
0.00888919
0.00888032
0.00891055
0.00898356
0.00911992
0.00931451
0.00951724
0.0092287
0.00908092
0.00896656
0.0089049
0.00889083
0.0089074
0.00897297
0.00910793
0.00930453
0.00970027
0.00941155
0.00926045
0.00908464
0.00896296
0.00893627
0.00895257
0.00902266
0.00916476
0.00938066
0.0100066
0.00969057
0.00952974
0.00927704
0.00907691
0.00902101
0.00904194
0.00912343
0.00927749
0.00952617
0.0103861
0.010059
0.00983036
0.00951301
0.00926252
0.00918036
0.00919721
0.0092942
0.00946125
0.00970982
0.0108074
0.0104911
0.0101247
0.00977069
0.00951317
0.0094201
0.00943393
0.00955675
0.00974304
0.00992154
0.00721438
0.00718837
0.00717508
0.00714816
0.00704615
0.0069587
0.00693634
0.00698387
0.00706353
0.00716453
0.00715246
0.00706809
0.00700347
0.00698439
0.0069135
0.00683259
0.00683085
0.00688276
0.00696773
0.00708847
0.00712613
0.00698876
0.00689815
0.00683902
0.0067726
0.00674448
0.00675897
0.00681613
0.00689843
0.00699499
0.00708022
0.00691726
0.00682204
0.00675192
0.00670476
0.006693
0.00671
0.00675916
0.00682827
0.00689348
0.00705666
0.00688555
0.00679346
0.00673134
0.00669739
0.00668629
0.00669026
0.00672056
0.00677776
0.00684203
0.00705842
0.00688257
0.0067959
0.00673952
0.00671174
0.00669992
0.00669814
0.00672129
0.00677796
0.00684251
0.00711077
0.0069393
0.00686392
0.00679062
0.00675489
0.00674791
0.00674999
0.00677114
0.00682317
0.00688835
0.00723147
0.00705967
0.00699789
0.00689422
0.0068185
0.00680175
0.00681052
0.00682627
0.00686595
0.00694188
0.00741174
0.00724689
0.00716427
0.00703106
0.00691596
0.00686769
0.00686794
0.00687938
0.00691649
0.00699835
0.00760995
0.00747002
0.00727479
0.00713329
0.0070178
0.00694885
0.00694741
0.00697637
0.00701483
0.00706603
0.00591109
0.00590772
0.00592508
0.00592301
0.00580072
0.00574787
0.00574739
0.00576266
0.00577811
0.00581747
0.00589992
0.00586464
0.00584631
0.00584762
0.00572452
0.00567137
0.00567115
0.00568844
0.00571957
0.00578425
0.00592092
0.00585504
0.00580425
0.00574505
0.00563757
0.00560972
0.00561671
0.00564714
0.0056951
0.00576653
0.00590932
0.00581112
0.00573781
0.00565708
0.00558891
0.00557211
0.00558242
0.00562058
0.00567682
0.00574152
0.0058626
0.00576168
0.00568703
0.00562004
0.00558124
0.00556953
0.0055733
0.005602
0.00565115
0.00570386
0.00584314
0.00573979
0.00566979
0.00561957
0.0055926
0.00558231
0.00558263
0.00560693
0.00564987
0.00569692
0.00584691
0.00574785
0.00569633
0.00565709
0.00563475
0.00562435
0.00562262
0.00563967
0.00567779
0.00572642
0.00588147
0.0058034
0.0057635
0.00572137
0.00569433
0.0056779
0.00567065
0.00567388
0.00569959
0.00575172
0.00596789
0.0059182
0.0058696
0.00580943
0.00576178
0.00573506
0.00571945
0.00571466
0.00572279
0.005768
0.00611147
0.00605813
0.00595776
0.00589537
0.00584438
0.00579558
0.00578294
0.00578471
0.00578862
0.00580774
0.00527904
0.0052559
0.00525344
0.00526588
0.00521977
0.0051622
0.00516015
0.00518298
0.00519589
0.00522498
0.00526659
0.00522434
0.00521298
0.00521542
0.00514627
0.00509788
0.00509458
0.00511223
0.00513804
0.00519398
0.00527204
0.00522184
0.00519215
0.00516841
0.00508858
0.00504999
0.00504874
0.00507173
0.00511213
0.00518062
0.00529026
0.00522701
0.00517766
0.00512702
0.00505103
0.00502142
0.0050209
0.00504421
0.00509056
0.00515879
0.00530963
0.00522614
0.00516127
0.00509553
0.00503797
0.00501887
0.00501777
0.00503541
0.0050751
0.00513535
0.00529883
0.0052078
0.0051355
0.00507894
0.00504054
0.00502547
0.00502386
0.00504162
0.00507783
0.00513249
0.00526326
0.0051863
0.00513161
0.00508932
0.00506193
0.00504947
0.00504609
0.00505801
0.00508975
0.00514115
0.00526706
0.00521387
0.00517224
0.00514293
0.00512048
0.00509456
0.00508209
0.00508342
0.00511056
0.00516516
0.0053388
0.00529482
0.00524653
0.00521152
0.00518625
0.00514965
0.00512772
0.0051248
0.00514038
0.00518472
0.00546139
0.0054004
0.00534128
0.00529712
0.00526506
0.00521863
0.00519129
0.00518958
0.00519748
0.0052177
0.00494559
0.00491728
0.00489163
0.00487619
0.00485236
0.00482496
0.00482754
0.00485292
0.00487477
0.0049049
0.00492914
0.00488772
0.00486076
0.00484841
0.00481863
0.00478976
0.00478755
0.00480387
0.00482972
0.00487349
0.00492752
0.0048785
0.00484533
0.0048284
0.00479176
0.00476297
0.00475905
0.00477231
0.00480011
0.00484664
0.00492972
0.00487889
0.00484217
0.00481571
0.00477385
0.00474812
0.00474324
0.0047523
0.00477676
0.00481455
0.00493767
0.00488517
0.00484671
0.00481
0.00476859
0.00474933
0.00474455
0.00475021
0.00477031
0.00480201
0.00496232
0.00490315
0.00485231
0.00480755
0.00477208
0.00475597
0.00475094
0.00475637
0.00477495
0.00480391
0.00496398
0.0049032
0.00485309
0.00481282
0.00478549
0.00477189
0.00476594
0.00476727
0.00478348
0.00481355
0.00496184
0.00491184
0.00487009
0.00484263
0.00482551
0.00480632
0.00479032
0.00478774
0.00480402
0.00483907
0.00500965
0.00496257
0.00492564
0.00489996
0.00487775
0.00484729
0.00482234
0.00481879
0.00483337
0.00486501
0.00508989
0.00503912
0.00499798
0.00496052
0.00493459
0.00490065
0.00486291
0.00486056
0.00487727
0.00489805
0.00478471
0.00475984
0.00473528
0.00471388
0.00469684
0.00468544
0.00468869
0.00470358
0.00472249
0.00474573
0.00477637
0.00474594
0.00472041
0.00469952
0.0046813
0.00466746
0.00466626
0.00467588
0.00469349
0.00472052
0.00477493
0.00474138
0.00471212
0.00468912
0.00466828
0.00465272
0.00464947
0.00465648
0.00467241
0.00469783
0.00477711
0.0047418
0.00470949
0.0046838
0.00466024
0.0046449
0.00464036
0.00464426
0.00465775
0.00467792
0.00478365
0.00474562
0.00471223
0.00468475
0.0046605
0.00464644
0.00464152
0.00464308
0.0046538
0.00466993
0.00480277
0.00476019
0.00472242
0.00468981
0.00466596
0.00465332
0.00464798
0.00464851
0.00465763
0.00467279
0.0048139
0.00477102
0.00473108
0.00469987
0.0046798
0.00466902
0.00466115
0.00465957
0.00466766
0.00468391
0.00482138
0.00478303
0.00474729
0.0047219
0.00470912
0.00469552
0.00468154
0.00467751
0.00468436
0.00470141
0.00486625
0.00482265
0.0047879
0.0047646
0.00474682
0.00472778
0.00470657
0.00470005
0.00470566
0.0047221
0.00489818
0.00486341
0.00483228
0.00480484
0.00478206
0.00476134
0.00473416
0.00472584
0.00473272
0.00474609
0.00477623
0.00475165
0.00473163
0.00471188
0.00469307
0.00468192
0.00468564
0.0046984
0.00471333
0.00473364
0.00477175
0.00474136
0.00471773
0.00469699
0.00467749
0.0046645
0.00466404
0.00467196
0.00468662
0.00471153
0.0047733
0.00474056
0.0047115
0.00468648
0.0046648
0.00465074
0.00464798
0.00465402
0.00466865
0.00469332
0.00477877
0.00474286
0.00470848
0.00467902
0.00465635
0.00464274
0.0046387
0.00464277
0.00465551
0.00467552
0.00478754
0.00474595
0.00470822
0.00467797
0.0046557
0.00464251
0.00463777
0.00463984
0.00464993
0.00466588
0.00479812
0.00475446
0.00471274
0.00468268
0.00466189
0.00464978
0.00464454
0.00464546
0.00465463
0.00466961
0.00480687
0.00476393
0.00473029
0.00469573
0.00467739
0.00466523
0.00465851
0.00465814
0.00466666
0.0046824
0.00482491
0.00478257
0.00474972
0.00472274
0.00470631
0.00469001
0.00467903
0.00467648
0.00468236
0.00469803
0.0048585
0.00481732
0.00478569
0.00475866
0.00473847
0.0047223
0.00470425
0.00469909
0.00470215
0.00471508
0.0048837
0.00485075
0.00481659
0.00479064
0.00476707
0.00474918
0.00473001
0.00472532
0.00472879
0.00473779
0.0164108
0.0154443
0.0153438
0.0151705
0.0142188
0.0142195
0.0151722
0.0153453
0.0154475
0.0164148
0.0154454
0.0142034
0.0136929
0.0134494
0.0132224
0.0132222
0.0134501
0.0136953
0.0142029
0.0154424
0.0153452
0.0136931
0.0131392
0.0129185
0.012821
0.0128226
0.0129184
0.0131346
0.0136891
0.0153417
0.0151718
0.0134496
0.0129184
0.0127082
0.0126226
0.0126174
0.0127029
0.0129129
0.0134446
0.0151684
0.0142192
0.013222
0.0128224
0.0126179
0.0125309
0.0125303
0.0126161
0.0128154
0.0132172
0.0142148
0.0142207
0.0132197
0.0128157
0.012616
0.0125302
0.0125302
0.012616
0.0128153
0.0132163
0.0142078
0.0151681
0.0134442
0.0129129
0.0127019
0.012616
0.0126155
0.0127008
0.0129059
0.0134273
0.0151133
0.0153421
0.0136883
0.0131338
0.012912
0.0128142
0.0128054
0.0128984
0.0130825
0.0136414
0.0152986
0.0154428
0.0141982
0.0136874
0.013432
0.013203
0.013166
0.0133935
0.0136446
0.0141542
0.0153993
0.0164106
0.0154306
0.0153289
0.0151175
0.0141576
0.0141703
0.0151239
0.015298
0.0153992
0.016369
0.0128515
0.0124923
0.012407
0.0123353
0.0121232
0.0121233
0.0123357
0.0124074
0.0124931
0.0128527
0.0124925
0.0120933
0.0119095
0.0118121
0.0117483
0.0117482
0.0118123
0.0119102
0.0120931
0.0124926
0.0124073
0.0119095
0.0117008
0.0115944
0.0115462
0.0115467
0.0115943
0.0116999
0.011909
0.0124073
0.0123355
0.0118121
0.0115943
0.0114814
0.0114313
0.0114301
0.0114802
0.0115933
0.0118114
0.0123355
0.0121233
0.0117482
0.0115466
0.0114302
0.0113778
0.0113777
0.0114298
0.0115451
0.0117475
0.0121229
0.0121237
0.0117478
0.0115451
0.0114298
0.0113777
0.0113777
0.0114299
0.0115452
0.0117475
0.0121229
0.0123353
0.0118113
0.0115933
0.0114801
0.0114299
0.01143
0.0114801
0.0115934
0.011812
0.0123473
0.0124074
0.011909
0.0116999
0.0115934
0.0115452
0.0115454
0.0115937
0.0117096
0.0119185
0.0124178
0.0124928
0.0120933
0.0119092
0.0118119
0.0117478
0.0117569
0.0118215
0.0119182
0.0121022
0.012503
0.0128525
0.0124935
0.0124082
0.0123468
0.0121329
0.0121319
0.0123462
0.0124179
0.012503
0.0128631
0.0108905
0.0107698
0.0107197
0.0106855
0.0106437
0.0106437
0.0106856
0.0107198
0.01077
0.0108907
0.0107698
0.0106328
0.0105564
0.0105116
0.0104882
0.0104882
0.0105117
0.0105565
0.0106328
0.0107717
0.0107197
0.0105564
0.0104661
0.0104135
0.010389
0.010389
0.0104134
0.0104672
0.0105577
0.0107214
0.0106856
0.0105116
0.0104135
0.0103553
0.0103283
0.0103291
0.0103562
0.0104145
0.0105129
0.0106872
0.0106437
0.0104882
0.010389
0.0103291
0.0103007
0.0103007
0.0103292
0.01039
0.0104894
0.0106452
0.0106437
0.0104892
0.01039
0.0103292
0.0103007
0.0103008
0.0103292
0.0103901
0.0104895
0.0106457
0.0106872
0.0105129
0.0104145
0.0103563
0.0103292
0.0103293
0.0103565
0.0104153
0.0105146
0.0106995
0.0107214
0.0105578
0.0104673
0.0104147
0.0103902
0.0103911
0.0104161
0.0104799
0.0105695
0.0107322
0.0107717
0.0106346
0.010558
0.0105142
0.0104908
0.0105018
0.0105252
0.010569
0.0106456
0.0107825
0.0108926
0.0107729
0.0107228
0.0106988
0.0106579
0.0106563
0.0106979
0.0107322
0.0107825
0.0109032
0.00961227
0.00957113
0.00954825
0.00953337
0.00952299
0.009523
0.0095334
0.00954829
0.00957119
0.00961231
0.00957114
0.00952009
0.00948741
0.009467
0.00945699
0.009457
0.00946703
0.00948739
0.00952011
0.00957292
0.00954827
0.00948741
0.00944769
0.00942284
0.00941095
0.00941093
0.00942282
0.00944905
0.00948885
0.00954995
0.00953339
0.00946701
0.00942284
0.00939495
0.00938157
0.00938279
0.0093962
0.00942418
0.00946847
0.00953502
0.00952301
0.009457
0.00941093
0.00938276
0.00936866
0.00936869
0.00938286
0.00941227
0.00945843
0.00952461
0.00952294
0.00945827
0.00941225
0.00938285
0.0093687
0.00936871
0.00938287
0.0094123
0.00945846
0.00952471
0.00953503
0.00946847
0.00942419
0.00939628
0.00938287
0.00938291
0.00939632
0.00942432
0.00946868
0.00953711
0.00954995
0.00948895
0.00944912
0.00942425
0.00941233
0.00941241
0.00942437
0.00945099
0.00949077
0.00955182
0.00957293
0.00952181
0.00948902
0.00946861
0.00945859
0.00946028
0.00947033
0.00949068
0.00952359
0.00957487
0.00961415
0.00957305
0.00955015
0.00953691
0.00952666
0.00952641
0.00953685
0.00955183
0.00957487
0.00961611