/*--------------------------------*- C++ -*----------------------------------*\
  =========                 |
  \\      /  F ield         | OpenFOAM: The Open Source CFD Toolbox
   \\    /   O peration     | Website:  https://openfoam.org
    \\  /    A nd           | Version:  9
     \\/     M anipulation  |
\*---------------------------------------------------------------------------*/
FoamFile
{
    format      ascii;
    class       volScalarField;
    location    "1";
    object      H2.gas;
}
// * * * * * * * * * * * * * * * * * * * * * * * * * * * * * * * * * * * * * //

dimensions      [0 0 0 0 0 0 0];

internalField   nonuniform List<scalar> 
137980
(
2.02711e-161
4.66333e-161
2.02583e-161
1.43289e-161
1.13749e-161
1.81659e-161
2.3703e-161
2.97669e-161
5.93981e-161
1.32023e-160
2.77272e-161
7.56925e-162
2.7966e-162
1.61868e-162
7.7572e-163
1.61042e-162
3.36089e-162
3.97891e-162
4.65407e-162
1.34498e-161
4.46012e-161
5.88342e-162
5.42994e-163
8.17376e-164
2.58234e-164
9.90078e-164
5.92131e-163
3.73195e-162
2.16209e-161
9.42774e-161
6.00927e-161
9.61982e-162
8.63914e-163
3.03681e-164
1.85905e-165
1.1767e-164
1.55924e-163
1.44839e-162
8.92356e-162
3.7754e-161
3.18625e-161
4.08959e-162
2.77794e-163
9.31015e-165
7.51096e-166
1.34833e-165
2.21239e-164
2.8129e-163
2.534e-162
1.72775e-161
1.61684e-161
1.95718e-162
1.18971e-163
4.96886e-165
8.8315e-166
6.77228e-166
1.28144e-164
3.18206e-163
4.13439e-162
3.3039e-161
7.82337e-162
8.4733e-163
3.39822e-164
8.70936e-165
1.43898e-164
1.21644e-164
3.2655e-164
8.46804e-163
9.9096e-162
5.93359e-161
8.86084e-162
4.69215e-163
9.17941e-164
1.92488e-163
2.64885e-163
2.12428e-163
5.2105e-164
3.47281e-163
5.47244e-162
2.79964e-161
3.02912e-161
2.03219e-162
1.67184e-162
2.29587e-162
2.22239e-162
1.64466e-162
5.78218e-163
1.95775e-163
1.60711e-162
1.94862e-161
7.40202e-161
1.17506e-161
1.53194e-161
1.59263e-161
1.25292e-161
9.93241e-162
4.90696e-162
3.84764e-162
4.522e-162
7.07888e-161
1.57498e-162
8.17117e-163
6.9938e-163
8.31207e-163
7.4007e-163
9.47045e-163
1.18953e-162
1.72216e-162
2.04168e-162
1.82041e-162
1.29865e-162
4.33996e-163
1.30184e-163
8.63265e-164
9.5776e-164
2.38583e-163
6.21596e-163
1.2151e-162
1.81485e-162
3.04691e-162
2.45328e-162
9.82875e-163
1.09153e-163
1.59172e-164
1.73409e-164
8.4198e-164
3.80768e-163
1.21225e-162
2.96309e-162
7.09078e-162
3.22861e-162
1.51686e-162
3.55079e-163
2.97982e-164
6.77141e-165
3.49698e-164
1.84549e-163
8.11584e-163
2.29021e-162
4.64547e-162
3.09449e-162
1.64847e-162
4.35878e-163
4.81904e-164
7.24676e-165
1.45807e-164
5.69171e-164
2.38061e-163
8.49033e-163
2.45039e-162
7.7207e-163
3.89501e-163
1.021e-163
2.31266e-164
4.18689e-164
1.41512e-164
4.12409e-164
2.02705e-163
8.95329e-163
3.52299e-162
5.30897e-163
1.35248e-163
3.49431e-164
1.55005e-163
3.04964e-163
1.58604e-163
3.49672e-164
1.83903e-163
8.82658e-163
3.98022e-162
4.20865e-163
8.88707e-164
1.71454e-163
7.42425e-163
1.28773e-162
9.88264e-163
2.93963e-163
1.20817e-163
4.06672e-163
1.54417e-162
7.53446e-163
2.44781e-163
8.06656e-163
1.96847e-162
3.42178e-162
2.88763e-162
1.48932e-162
3.87217e-163
3.3407e-163
7.57638e-163
4.20819e-163
6.06163e-163
1.04228e-162
3.13422e-162
6.07992e-162
5.49209e-162
2.34984e-162
9.02546e-163
4.02227e-163
1.16999e-162
3.00647e-162
1.99708e-163
2.08656e-163
1.37701e-163
1.02078e-163
9.639e-164
1.02306e-163
1.01825e-163
6.85911e-164
1.89258e-162
4.39412e-163
4.48227e-163
3.02574e-163
1.66876e-163
1.00795e-163
4.70009e-164
3.93032e-164
5.3441e-164
9.03436e-164
3.04191e-163
1.29536e-162
7.50829e-163
3.21958e-163
1.40563e-163
6.95259e-164
2.81911e-164
2.94928e-164
5.71283e-164
1.88621e-163
5.49892e-163
1.68052e-162
8.50459e-163
2.28648e-163
4.46672e-164
2.45671e-164
1.83848e-164
2.80933e-164
5.42159e-164
2.32332e-163
6.53946e-163
8.89882e-163
3.18492e-163
5.14205e-164
2.70931e-164
3.01795e-164
2.99927e-164
3.45079e-164
6.56624e-164
2.39581e-163
5.52745e-163
2.33974e-163
6.19277e-164
4.14313e-164
5.20806e-164
6.46008e-164
6.19915e-164
9.55978e-164
2.54065e-163
6.97112e-163
5.32361e-163
8.75104e-164
6.62491e-164
6.77551e-164
8.16737e-164
1.0413e-163
1.25976e-163
4.11172e-163
1.22536e-162
1.96376e-162
1.47164e-162
1.0598e-163
1.05849e-163
9.104e-164
1.20503e-163
1.81505e-163
5.5259e-163
1.89764e-162
3.17429e-162
2.86793e-162
2.50078e-162
1.15614e-163
7.69276e-164
9.72758e-164
2.38713e-163
3.97192e-163
2.16027e-162
4.17972e-162
3.92076e-162
2.67639e-162
1.95596e-162
0
1.10504e-163
1.44336e-163
2.15138e-163
1.18006e-162
4.41906e-162
5.12401e-162
3.88338e-162
8.05548e-163
1.31655e-162
1.07393e-163
1.48183e-163
2.13435e-163
2.19426e-163
1.85372e-163
1.61846e-163
5.21184e-164
2.66534e-164
2.06603e-164
1.34398e-164
5.4007e-164
5.70572e-164
8.81769e-164
9.25913e-164
6.68272e-164
2.79378e-164
2.43764e-164
2.49026e-164
2.58017e-164
2.46648e-164
2.48779e-164
2.3921e-164
3.26997e-164
3.0665e-164
2.65064e-164
2.9527e-164
3.29733e-164
3.75392e-164
3.77255e-164
3.46294e-164
7.18022e-164
3.117e-164
2.19431e-164
3.44625e-164
4.50021e-164
5.22134e-164
5.36442e-164
5.63275e-164
5.7412e-164
5.98186e-164
8.42654e-164
5.06949e-164
5.51351e-164
6.40762e-164
6.83803e-164
6.93009e-164
7.11839e-164
7.63003e-164
8.48374e-164
1.01511e-163
1.13606e-163
1.13507e-163
1.07472e-163
9.3682e-164
9.26565e-164
9.64657e-164
1.03981e-163
1.20896e-163
1.52717e-163
1.7825e-163
2.05337e-163
1.79723e-163
1.25714e-163
1.06816e-163
1.18828e-163
1.43078e-163
1.63961e-163
2.28882e-163
2.95086e-163
2.40856e-163
2.71755e-163
1.90667e-163
1.17578e-163
1.28562e-163
2.16229e-163
2.4599e-163
3.32185e-163
5.67805e-163
4.00904e-163
1.98379e-163
2.61139e-163
9.67434e-164
1.14283e-163
2.05025e-163
4.63863e-163
5.07343e-163
1.02827e-162
9.91332e-163
3.43338e-163
2.91471e-163
4.99202e-164
4.52799e-164
2.0488e-163
3.62605e-163
9.02388e-163
1.16522e-162
2.25968e-162
1.13397e-162
8.4915e-163
7.17747e-163
1.02842e-164
4.05423e-165
2.85234e-165
2.05565e-165
1.61937e-165
2.94864e-165
5.60158e-165
6.95781e-165
7.70571e-165
7.70539e-165
1.24871e-164
3.96978e-165
3.01895e-165
2.21044e-165
3.2818e-165
6.69989e-165
6.54566e-165
6.2496e-165
6.35587e-165
7.43488e-165
1.55234e-164
3.4753e-165
2.80504e-165
4.02485e-165
8.17441e-165
7.03275e-165
5.15601e-165
4.64379e-165
5.67368e-165
9.54169e-165
1.69347e-164
5.57636e-165
4.85191e-165
9.59021e-165
8.1723e-165
4.4498e-165
3.75753e-165
4.22642e-165
7.72753e-165
1.85915e-164
1.82624e-164
1.06741e-164
1.10134e-164
8.2997e-165
4.92214e-165
3.82389e-165
3.90573e-165
6.49121e-165
2.0201e-164
3.38337e-164
1.89608e-164
1.12122e-164
7.94762e-165
5.49154e-165
4.54874e-165
4.69848e-165
5.9797e-165
1.65549e-164
4.31854e-164
3.81318e-164
1.81493e-164
1.3113e-164
8.16423e-165
6.1074e-165
7.22973e-165
8.54199e-165
1.35613e-164
5.31565e-164
5.23498e-164
2.30583e-164
1.79533e-164
1.15969e-164
7.38708e-165
9.0493e-165
1.85521e-164
2.04393e-164
4.1307e-164
9.38776e-164
5.36627e-164
1.32185e-164
1.62151e-164
7.29253e-165
9.46111e-165
2.47357e-164
6.28342e-164
6.21762e-164
1.36882e-163
1.16822e-163
4.7859e-164
1.1565e-164
7.35375e-165
6.48806e-165
1.65469e-164
4.47732e-164
1.14476e-163
1.86561e-163
2.1046e-163
1.32432e-163
4.80546e-164
1.35383e-164
1.02894e-167
1.75936e-167
3.91494e-167
1.20055e-166
4.32201e-166
1.46558e-165
2.97934e-165
3.62105e-165
4.02176e-165
4.40407e-165
1.20117e-167
3.10776e-167
1.05482e-166
3.87561e-166
1.46346e-165
2.8618e-165
3.33162e-165
3.06944e-165
2.14789e-165
2.38109e-165
1.64436e-167
5.23311e-167
2.04715e-166
8.00579e-166
2.27445e-165
3.01835e-165
2.849e-165
2.01006e-165
1.06051e-165
1.17612e-165
3.39575e-167
1.06591e-166
3.32965e-166
1.13914e-165
2.10732e-165
2.06327e-165
1.72551e-165
8.16915e-166
5.6653e-166
9.35313e-166
1.21237e-166
2.39713e-166
4.88729e-166
9.40256e-166
9.69821e-166
8.80618e-166
6.01089e-166
3.64906e-166
4.38775e-166
1.37787e-165
1.04978e-165
9.60957e-166
8.31554e-166
6.95765e-166
5.67493e-166
4.19866e-166
2.82289e-166
2.85867e-166
7.08071e-166
2.54768e-165
1.04343e-165
9.81791e-166
8.52657e-166
6.56303e-166
4.691e-166
3.34981e-166
2.6767e-166
4.32839e-166
2.16285e-165
2.93967e-165
7.24012e-166
6.73875e-166
5.54267e-166
4.2192e-166
3.72554e-166
3.20583e-166
3.95024e-166
1.8375e-165
3.24205e-165
2.64629e-165
4.64428e-166
4.70944e-166
5.01321e-166
5.83065e-166
8.57819e-166
8.01536e-166
2.12978e-165
4.3338e-165
3.12964e-165
9.16578e-166
1.10776e-165
1.33352e-165
1.44206e-165
2.15825e-165
4.65525e-165
5.42323e-165
5.63467e-165
3.58624e-165
9.70245e-166
2.67835e-166
1.83513e-167
1.76384e-167
1.71709e-167
1.50023e-167
2.41316e-167
1.50574e-166
7.6097e-166
1.67263e-165
2.12353e-165
2.39213e-165
1.54037e-167
1.69392e-167
1.5687e-167
1.5854e-167
5.32243e-167
2.51567e-166
7.97078e-166
1.2585e-165
1.19573e-165
1.5009e-165
4.30237e-168
9.3671e-168
9.05557e-168
1.91432e-167
9.63254e-167
3.06343e-166
7.93333e-166
8.70484e-166
8.02634e-166
6.46991e-166
1.32146e-168
2.9717e-168
4.83456e-168
2.35004e-167
9.68477e-167
2.91717e-166
4.09374e-166
3.86198e-166
2.97904e-166
2.07574e-166
9.65073e-169
1.59854e-168
2.61149e-168
8.1737e-168
2.48019e-167
6.81889e-167
7.96333e-167
7.59394e-167
6.07021e-167
6.84091e-167
6.06118e-168
6.63994e-168
7.72592e-168
1.01338e-167
1.16045e-167
1.40436e-167
1.56352e-167
1.608e-167
1.99445e-167
4.90813e-167
2.37071e-167
1.89815e-167
1.5998e-167
1.49261e-167
1.44098e-167
1.35425e-167
1.25728e-167
1.34447e-167
3.06823e-167
9.01329e-167
2.62802e-167
2.10338e-167
1.93028e-167
1.75126e-167
1.49226e-167
1.48611e-167
1.69657e-167
3.39217e-167
8.79327e-167
2.0646e-166
1.68264e-167
1.55063e-167
1.60612e-167
1.80896e-167
2.5789e-167
4.05069e-167
7.77342e-167
1.85365e-166
2.63625e-166
2.53623e-166
2.00931e-167
1.95453e-167
1.93521e-167
3.25063e-167
1.07664e-166
2.95191e-166
6.34766e-166
5.3598e-166
2.89026e-166
1.50435e-166
1.67812e-167
2.32612e-167
1.25634e-167
1.12266e-167
1.62376e-167
7.44364e-167
3.60905e-166
5.62572e-166
6.95194e-166
9.06512e-166
1.56328e-167
2.06825e-167
1.59555e-167
1.22248e-167
1.34034e-167
5.47977e-167
2.67131e-166
4.1676e-166
3.61813e-166
5.50546e-166
9.70957e-168
1.55547e-167
1.46249e-167
1.16598e-167
1.25802e-167
4.87917e-167
2.23396e-166
2.78933e-166
2.54832e-166
1.80642e-166
5.09022e-168
9.57583e-168
9.87523e-168
8.63955e-168
1.07309e-167
4.67967e-167
1.28251e-166
1.28384e-166
8.98094e-167
4.313e-167
3.48809e-168
6.0559e-168
6.41309e-168
6.28685e-168
8.91255e-168
3.44285e-167
4.98763e-167
4.37814e-167
2.23511e-167
1.56133e-167
6.32601e-169
2.77944e-168
3.57745e-168
4.45003e-168
7.92823e-168
1.92665e-167
1.90271e-167
1.30467e-167
7.04108e-168
1.13075e-167
2.24022e-169
6.47804e-169
1.42611e-168
2.03025e-168
3.80188e-168
5.48843e-168
5.14799e-168
3.46724e-168
4.302e-168
1.65706e-167
2.02289e-169
2.53238e-169
4.3563e-169
6.39266e-169
1.00388e-168
1.38448e-168
1.36604e-168
1.61065e-168
4.66773e-168
2.23558e-167
1.87596e-169
1.89119e-169
2.08496e-169
2.71107e-169
4.11898e-169
5.92971e-169
1.04509e-168
2.89894e-168
1.00989e-167
2.37017e-167
1.77089e-169
3.03569e-169
3.59021e-169
3.78464e-169
4.91794e-169
1.09176e-168
3.27565e-168
6.13383e-168
1.31733e-167
1.22943e-167
1.8211e-168
5.63997e-169
1.70478e-168
7.90294e-168
1.65586e-167
2.77972e-167
4.25726e-167
5.03743e-167
6.71223e-167
8.40225e-167
1.40258e-168
7.3745e-169
8.86697e-169
5.84363e-168
1.42825e-167
2.41757e-167
3.36532e-167
2.6853e-167
1.9501e-167
2.95086e-167
7.28005e-169
4.32462e-169
7.64864e-169
5.24697e-168
1.33599e-167
2.07003e-167
2.51772e-167
1.60721e-167
1.03663e-167
1.00617e-167
3.08543e-169
1.75824e-169
1.77521e-168
5.12725e-168
9.06693e-168
1.01877e-167
7.94341e-168
6.3907e-168
6.32193e-168
7.80773e-168
2.67208e-169
6.6606e-169
1.75437e-168
2.39787e-168
2.78037e-168
2.93067e-168
3.03474e-168
5.05332e-168
8.10452e-168
8.3689e-168
5.1981e-169
5.65493e-169
7.14452e-169
9.51858e-169
1.03445e-168
1.21901e-168
2.28447e-168
6.19565e-168
8.47949e-168
8.54578e-168
4.00003e-169
4.7528e-169
3.19958e-169
4.1231e-169
4.72595e-169
7.02627e-169
2.04994e-168
6.3152e-168
8.11797e-168
9.03411e-168
1.03517e-169
2.35895e-169
2.66275e-169
2.85104e-169
2.8893e-169
4.44792e-169
1.82468e-168
5.78663e-168
6.98306e-168
7.45175e-168
3.76348e-170
7.72233e-170
1.03936e-169
1.58697e-169
2.05064e-169
2.83228e-169
1.31626e-168
5.52717e-168
5.89045e-168
5.8175e-168
2.75845e-170
3.67528e-170
4.64597e-170
6.88649e-170
9.63495e-170
1.54931e-169
7.53569e-169
5.91734e-168
5.02408e-168
3.85801e-168
1.74752e-170
3.65957e-170
1.80154e-170
1.41898e-171
4.12094e-170
2.67716e-169
1.9095e-169
3.52388e-170
1.24613e-169
4.05657e-169
8.13152e-171
1.16455e-170
4.33631e-171
1.04758e-171
6.35291e-171
5.91953e-170
2.16875e-170
4.85242e-171
1.12777e-171
1.18299e-171
2.73754e-171
3.13501e-171
1.34716e-171
8.04585e-172
4.22991e-171
2.14421e-170
1.95412e-170
6.56875e-171
1.23641e-171
7.98184e-172
6.48668e-172
6.91689e-172
5.06312e-172
1.62417e-171
1.83422e-170
3.35074e-170
2.64109e-170
7.12242e-171
1.34808e-171
9.31074e-172
7.08166e-172
1.09363e-171
2.8627e-171
1.50163e-170
3.71166e-170
3.84722e-170
2.28242e-170
5.54603e-171
1.53263e-171
1.03668e-171
1.05412e-171
1.24781e-171
3.30619e-171
1.52968e-170
2.84556e-170
2.86952e-170
1.91694e-170
6.05492e-171
2.32902e-171
1.16049e-171
4.30514e-171
3.06996e-171
2.93892e-171
3.82213e-171
7.5639e-171
1.38211e-170
1.45549e-170
9.85923e-171
4.04355e-171
1.52649e-171
1.0703e-170
8.99508e-171
6.49518e-171
4.72324e-171
4.45555e-171
5.12862e-171
9.22561e-171
1.01804e-170
6.6781e-171
2.22674e-171
1.1698e-170
9.61381e-171
8.34819e-171
6.75796e-171
5.10257e-171
4.74468e-171
5.92486e-171
1.02738e-170
9.77281e-171
4.27904e-171
7.93131e-171
6.10659e-171
5.40977e-171
5.21103e-171
4.67068e-171
4.38063e-171
4.59059e-171
2.38935e-170
3.35039e-170
1.49015e-170
3.08539e-174
2.70681e-174
1.47406e-174
4.84459e-175
3.57606e-174
9.13812e-174
6.15356e-174
2.70928e-174
2.75766e-174
5.42288e-174
9.24271e-175
8.02188e-175
3.88789e-175
2.88612e-175
1.61642e-174
5.46354e-174
4.92649e-174
4.5538e-174
3.21173e-174
1.46817e-174
4.53654e-175
2.75285e-175
2.23363e-175
5.25793e-175
2.11699e-174
5.71718e-174
7.48391e-174
7.32047e-174
5.46917e-174
2.42667e-174
2.22301e-174
5.76243e-175
7.11363e-175
2.09483e-174
7.22066e-174
1.20209e-173
1.39622e-173
1.38643e-173
1.04065e-173
4.5259e-174
6.76506e-173
1.85511e-173
1e-173
1.22411e-173
2.03102e-173
2.79229e-173
3.1279e-173
3.06645e-173
2.19754e-173
9.43043e-174
7.7707e-172
3.14797e-172
1.34267e-172
9.7532e-173
9.71803e-173
9.59008e-173
9.07745e-173
7.69956e-173
4.43675e-173
1.92126e-173
1.47862e-171
9.79144e-172
6.67408e-172
4.44383e-172
2.95661e-172
1.99235e-172
1.46038e-172
1.19157e-172
7.74967e-173
3.43709e-173
5.89104e-172
5.23234e-172
4.43268e-172
3.45678e-172
2.56366e-172
1.79729e-172
1.38161e-172
1.2485e-172
1.01538e-172
4.80679e-173
1.31461e-172
1.3269e-172
1.30657e-172
1.23705e-172
1.0157e-172
7.26172e-173
7.17766e-173
1.02499e-172
1.21688e-172
6.67959e-173
3.44455e-173
4.0656e-173
4.7337e-173
4.80493e-173
4.45442e-173
4.00632e-173
7.65158e-173
3.74713e-172
3.73756e-172
8.42498e-173
8.9538e-175
5.17612e-175
1.55062e-175
7.68382e-176
6.05665e-176
1.23442e-175
3.41312e-175
4.01756e-175
3.84173e-175
2.85778e-175
6.34158e-176
4.66418e-176
3.17981e-176
4.2499e-176
9.41551e-176
4.06671e-175
8.64437e-175
8.86668e-175
7.02044e-175
3.2547e-175
1.47521e-176
4.59795e-176
8.22704e-176
1.51195e-175
3.49168e-175
1.17148e-174
1.6497e-174
1.50178e-174
7.9537e-175
2.72417e-175
8.84362e-176
2.37367e-175
3.74242e-175
5.34212e-175
1.01823e-174
2.42368e-174
2.62145e-174
2.01362e-174
6.55803e-175
1.68181e-175
6.73209e-175
8.23725e-175
1.07645e-174
1.38657e-174
2.45495e-174
4.19242e-174
4.13991e-174
2.49837e-174
6.1203e-175
1.32894e-175
4.86267e-174
2.69651e-174
2.54836e-174
3.00787e-174
5.01638e-174
6.6967e-174
6.41198e-174
2.95626e-174
6.16214e-175
1.87465e-175
9.13828e-174
4.61859e-174
4.5438e-174
6.18866e-174
9.33046e-174
9.52179e-174
7.66914e-174
2.8104e-174
6.44282e-175
3.16052e-175
8.37889e-174
5.33093e-174
7.79651e-174
1.48928e-173
1.5342e-173
1.17216e-173
7.54605e-174
2.66056e-174
9.37223e-175
7.39005e-175
5.23976e-174
8.25278e-174
2.26571e-173
3.33331e-173
2.76601e-173
1.26735e-173
7.17508e-174
2.66873e-174
2.5619e-174
3.65334e-174
7.2904e-174
3.26159e-173
7.09335e-173
8.04292e-173
6.10758e-173
1.71679e-173
7.17007e-174
2.89409e-174
2.70083e-174
4.27716e-174
8.22527e-176
2.02031e-175
2.75337e-175
2.18789e-175
7.07212e-176
1.58964e-176
4.05072e-177
1.34708e-177
5.87873e-178
6.30606e-178
1.47118e-176
4.69744e-176
4.99163e-176
3.64892e-176
1.07724e-176
2.92091e-177
1.48517e-177
1.02391e-177
8.52554e-178
1.16558e-177
1.46402e-176
2.78549e-176
1.90711e-176
1.00019e-176
6.50024e-177
6.17498e-177
5.56128e-177
3.66744e-177
1.93894e-177
2.37394e-177
4.84795e-176
1.6405e-175
1.2178e-175
7.27715e-176
4.89972e-176
3.79337e-176
2.27278e-176
9.29332e-177
3.57443e-177
5.11388e-177
1.16387e-175
5.36574e-175
4.94156e-175
3.34188e-175
2.19008e-175
1.47054e-175
7.4156e-176
2.48169e-176
8.23191e-177
1.48783e-176
3.12531e-175
1.30385e-174
1.32445e-174
9.85123e-175
6.56597e-175
4.29865e-175
2.08305e-175
6.45243e-176
2.13403e-176
4.59169e-176
9.09439e-175
2.90748e-174
2.83605e-174
2.10225e-174
1.46139e-174
9.71402e-175
4.81451e-175
1.56137e-175
4.12592e-176
4.73449e-176
2.72105e-174
5.72723e-174
5.0905e-174
3.73689e-174
2.71867e-174
1.79104e-174
9.07092e-175
3.23812e-175
8.15713e-176
5.05846e-176
7.44745e-174
9.73882e-174
7.83605e-174
6.66863e-174
4.86827e-174
2.96419e-174
1.4204e-174
5.44452e-175
1.52012e-175
5.90026e-176
1.39415e-173
1.48989e-173
1.41347e-173
1.30057e-173
9.44083e-174
5.05362e-174
2.12278e-174
7.56923e-175
2.47385e-175
8.06828e-176
9.92497e-178
2.39494e-177
2.63258e-177
1.96613e-177
3.82764e-178
6.92268e-179
2.0702e-179
1.91218e-179
5.82732e-179
4.60197e-178
1.76191e-178
4.23916e-178
4.14286e-178
2.54826e-178
5.72343e-179
3.20578e-179
3.34391e-179
3.89473e-179
1.43503e-178
1.32841e-177
1.94994e-179
3.91632e-179
3.8078e-179
5.79351e-179
1.24219e-178
1.69925e-178
1.61356e-178
1.11478e-178
2.31153e-178
2.1029e-177
7.91386e-179
1.37833e-178
3.42013e-178
8.9135e-178
1.21712e-177
1.16606e-177
8.69751e-178
3.36438e-178
3.13647e-178
1.88732e-177
7.68755e-178
1.83518e-177
4.08508e-177
7.06098e-177
7.42803e-177
6.60067e-177
4.06282e-177
1.39635e-177
5.24954e-178
1.65901e-177
5.26618e-177
1.28705e-176
2.4968e-176
3.41506e-176
3.35434e-176
2.82884e-176
1.54414e-176
5.44719e-177
1.31103e-177
1.72229e-177
2.75203e-176
6.39658e-176
1.0589e-175
1.24865e-175
1.17911e-175
9.16922e-176
4.49584e-176
1.62792e-176
3.74671e-177
2.18779e-177
1.17975e-175
2.48935e-175
3.50164e-175
3.73804e-175
3.3741e-175
2.28308e-175
9.9893e-176
3.49872e-176
8.97588e-177
2.85894e-177
4.26e-175
7.80966e-175
9.57553e-175
9.71296e-175
8.29157e-175
4.81793e-175
1.79859e-175
5.28004e-176
1.37832e-176
3.47337e-177
1.30946e-174
2.03404e-174
2.30542e-174
2.31139e-174
1.89384e-174
1.0731e-174
4.04301e-175
9.36197e-176
1.84623e-176
4.07269e-177
8.13595e-180
8.99966e-180
7.38118e-180
3.15895e-180
2.26131e-180
2.79394e-180
6.31985e-180
8.57572e-180
1.42793e-179
3.73721e-179
2.16457e-180
1.99032e-180
1.552e-180
1.63836e-180
2.29458e-180
4.87502e-180
9.95941e-180
9.97857e-180
2.08917e-179
9.11999e-179
3.04834e-180
1.43485e-180
1.49433e-180
2.82746e-180
6.23039e-180
1.26225e-179
1.23639e-179
1.02226e-179
2.807e-179
1.85041e-178
4.49138e-180
2.07472e-180
4.75005e-180
1.44304e-179
2.82904e-179
2.84573e-179
2.02038e-179
1.13886e-179
4.12992e-179
3.64612e-178
3.5445e-180
9.32295e-180
3.11906e-179
8.76786e-179
1.31602e-178
1.13735e-178
5.75758e-179
1.89344e-179
6.03429e-179
6.68599e-178
1.65845e-179
6.77528e-179
2.0393e-178
4.94978e-178
6.38129e-178
5.30056e-178
2.21228e-178
4.6802e-179
7.50987e-179
9.88585e-178
1.17633e-178
4.09111e-178
1.13038e-177
2.37413e-177
2.74794e-177
2.17607e-177
7.85897e-178
1.37216e-178
8.35775e-179
8.69383e-178
6.71848e-178
2.06323e-177
5.2994e-177
9.5579e-177
1.03185e-176
7.77827e-177
2.65976e-177
4.87974e-178
8.52503e-179
4.72857e-178
3.21809e-177
8.79187e-177
2.06433e-176
3.27509e-176
3.46008e-176
2.58426e-176
1.08844e-176
3.05207e-177
2.76056e-178
2.08695e-178
1.31331e-176
3.16102e-176
6.71362e-176
9.98617e-176
1.08806e-175
9.16798e-176
5.68479e-176
3.16556e-176
9.95705e-177
1.44366e-177
1.88063e-180
1.96263e-180
1.78547e-180
2.61728e-180
5.3422e-180
1.18559e-179
1.50041e-179
1.34173e-179
1.14238e-179
1.1348e-179
1.53514e-180
1.13906e-180
1.43592e-180
4.34729e-180
9.94689e-180
1.55355e-179
1.53543e-179
1.16918e-179
1.0182e-179
1.28829e-179
1.34813e-180
9.63876e-181
1.98303e-180
5.84563e-180
1.10107e-179
1.50615e-179
1.16156e-179
1.03227e-179
1.11789e-179
2.88281e-179
1.80742e-180
9.91921e-181
2.17549e-180
5.07758e-180
7.95624e-180
8.53157e-180
7.32568e-180
1.15549e-179
2.33829e-179
9.81799e-179
1.67632e-180
1.03467e-180
1.7301e-180
1.88913e-180
2.47855e-180
3.45426e-180
6.01038e-180
1.73039e-179
6.63898e-179
2.94858e-178
8.78181e-181
1.91547e-180
1.82022e-180
1.3368e-180
1.51635e-180
2.37876e-180
4.96094e-180
1.86962e-179
1.01506e-178
4.65098e-178
2.18116e-180
6.42795e-180
5.25431e-180
2.85726e-180
2.40434e-180
2.87211e-180
4.61052e-180
1.1575e-179
7.49985e-179
3.59255e-178
1.14893e-179
2.32576e-179
1.87808e-179
1.11237e-179
9.33782e-180
9.84378e-180
1.37549e-179
1.62861e-179
2.67975e-179
1.12376e-178
5.10699e-179
7.34767e-179
6.09363e-179
4.33121e-179
4.29908e-179
5.60206e-179
1.02845e-178
1.70327e-178
1.93181e-178
3.60195e-178
1.87624e-178
2.10947e-178
1.90448e-178
1.6614e-178
1.98209e-178
3.3069e-178
7.68549e-178
1.71415e-177
3.03599e-177
7.34882e-177
2.94185e-180
2.20997e-180
3.39479e-180
8.69853e-180
1.48576e-179
1.68119e-179
1.53321e-179
1.07191e-179
5.04069e-180
4.39941e-180
1.09912e-180
1.31751e-180
6.20436e-180
1.41913e-179
1.70912e-179
1.74787e-179
1.52604e-179
9.38968e-180
5.16104e-180
3.70795e-180
7.3958e-181
2.21785e-180
8.20159e-180
1.46115e-179
1.6353e-179
1.62103e-179
1.29309e-179
6.00596e-180
2.85857e-180
2.01514e-180
7.43398e-181
2.73796e-180
7.08544e-180
9.99451e-180
1.21178e-179
1.22828e-179
8.10442e-180
2.74503e-180
1.9152e-180
3.09914e-180
8.02005e-181
1.95954e-180
2.19497e-180
2.84609e-180
5.84165e-180
7.89506e-180
5.78259e-180
2.58996e-180
3.23372e-180
1.1095e-179
6.62622e-181
7.4669e-181
8.01534e-181
9.26324e-181
2.7428e-180
5.39414e-180
5.46741e-180
3.91423e-180
5.52964e-180
1.7459e-179
4.15387e-181
7.08119e-181
8.923e-181
5.69489e-181
1.21591e-180
4.08792e-180
5.42983e-180
4.99554e-180
5.62174e-180
1.31759e-179
4.22777e-181
2.1945e-180
2.76765e-180
8.29627e-181
8.02657e-181
1.54666e-180
3.3556e-180
4.15336e-180
4.62011e-180
7.03686e-180
2.2862e-180
8.76512e-180
9.59907e-180
2.71286e-180
1.26015e-180
8.92216e-181
9.90254e-181
1.8066e-180
3.98175e-180
1.51174e-179
1.89697e-179
3.45762e-179
3.484e-179
1.2488e-179
5.61316e-180
1.98635e-180
1.03816e-180
2.83701e-180
1.84886e-179
1.652e-178
3.31312e-180
3.22406e-180
5.04237e-180
7.5816e-180
6.71066e-180
3.87662e-180
1.14192e-180
6.95311e-181
6.92187e-181
6.40753e-181
1.71122e-180
3.43685e-180
7.91036e-180
8.67044e-180
4.09107e-180
1.6176e-180
9.80194e-181
9.29864e-181
7.80877e-181
5.80063e-181
1.72276e-180
5.77641e-180
8.8592e-180
8.13545e-180
3.37414e-180
1.6492e-180
1.12511e-180
8.61727e-181
7.8585e-181
7.49584e-181
1.89895e-180
5.86966e-180
7.98327e-180
8.29837e-180
5.85626e-180
2.23541e-180
7.90667e-181
4.21723e-181
4.06494e-181
4.59578e-181
1.65896e-180
3.01485e-180
4.53004e-180
7.43118e-180
8.07234e-180
4.36392e-180
7.8965e-181
4.59314e-181
6.83372e-181
1.01721e-180
7.43109e-181
6.86786e-181
8.99022e-181
2.53674e-180
6.02414e-180
6.14902e-180
2.13172e-180
1.5216e-180
2.46045e-180
2.79286e-180
3.7139e-181
3.13169e-181
3.86275e-181
5.71943e-181
2.80172e-180
6.82949e-180
6.40484e-180
4.34599e-180
4.11323e-180
3.44593e-180
3.26398e-181
2.81582e-181
4.20108e-181
3.3986e-181
1.13917e-180
5.10593e-180
7.32726e-180
5.11824e-180
4.13593e-180
3.2989e-180
2.85414e-181
4.61139e-181
9.49143e-181
3.27202e-181
5.49827e-181
1.62294e-180
2.37097e-180
2.18892e-180
1.5885e-180
1.44918e-180
4.25888e-181
2.39275e-180
3.16935e-180
5.55218e-181
2.7598e-181
2.18438e-181
1.93317e-181
1.49747e-181
2.15096e-181
5.46984e-181
5.95238e-180
5.62449e-180
6.12802e-180
8.50415e-180
6.44256e-180
1.20678e-180
9.08698e-182
8.25713e-183
4.3164e-183
5.28851e-183
3.68282e-180
3.81449e-180
4.49758e-180
6.65479e-180
7.95276e-180
5.76735e-181
2.60665e-182
4.42911e-183
5.11275e-183
1.42641e-182
3.26385e-180
3.45615e-180
4.16255e-180
5.22098e-180
4.34124e-180
2.50783e-181
1.85659e-182
4.75409e-183
6.63418e-183
1.95777e-182
2.28499e-180
2.15035e-180
1.59226e-180
1.0322e-180
7.69558e-181
1.14195e-181
2.2864e-182
7.75998e-183
7.98999e-183
2.18524e-182
1.82784e-180
1.77008e-180
1.43647e-180
7.50635e-181
3.37999e-181
1.3148e-181
6.65195e-182
4.6548e-182
5.0277e-182
8.93559e-182
8.95232e-181
8.35372e-181
1.03972e-180
1.11778e-180
8.96725e-181
4.39213e-181
2.40851e-181
2.35083e-181
2.96199e-181
3.78065e-181
4.93543e-181
4.27646e-181
4.38451e-181
5.29807e-181
1.07943e-180
1.35709e-180
1.15833e-180
9.62327e-181
6.17929e-181
4.80444e-181
4.59486e-181
3.89421e-181
3.25172e-181
2.654e-181
4.76164e-181
1.55381e-180
1.82035e-180
1.10798e-180
3.63759e-181
1.08541e-181
3.81144e-181
3.88557e-181
2.7912e-181
1.73295e-181
3.35086e-181
8.14101e-181
1.20748e-180
2.24612e-181
3.26777e-182
1.16143e-182
3.69506e-181
3.81964e-181
2.5297e-181
1.01692e-181
3.01504e-181
3.43193e-181
2.6421e-181
2.20975e-182
8.21502e-183
6.42656e-183
5.44997e-180
8.52276e-180
1.18046e-179
9.56931e-180
7.62481e-181
3.37108e-182
1.36726e-182
5.61743e-183
8.71286e-184
2.84476e-184
8.9285e-180
9.19328e-180
1.04776e-179
9.1089e-180
9.50162e-181
1.33025e-182
1.33282e-183
7.4154e-184
3.47395e-184
7.11744e-184
6.00778e-180
7.24458e-180
8.86719e-180
5.95438e-180
4.10182e-181
1.12281e-182
5.84182e-184
3.04806e-184
3.60574e-184
9.26959e-184
5.35742e-180
7.34898e-180
7.1682e-180
2.57547e-180
2.56751e-181
2.02863e-182
1.6758e-183
4.44288e-184
4.24017e-184
7.82623e-184
2.26363e-180
3.3429e-180
3.38894e-180
1.02846e-180
1.73306e-181
4.03886e-182
1.15158e-182
4.01526e-183
2.18164e-183
1.7993e-183
7.32795e-181
7.24716e-181
5.31806e-181
1.62144e-181
6.81333e-182
5.14291e-182
4.15954e-182
3.33401e-182
2.81759e-182
2.5669e-182
4.80603e-181
4.40884e-181
3.57548e-181
1.9664e-181
1.32028e-181
8.9423e-182
4.73283e-182
3.07374e-182
2.6331e-182
2.98725e-182
5.5549e-181
6.07942e-181
5.38306e-181
3.69913e-181
1.59873e-181
4.7871e-182
1.04725e-182
5.21244e-183
4.22565e-183
6.83661e-183
6.2541e-181
6.87278e-181
5.54095e-181
4.82699e-181
3.21169e-181
2.55682e-182
6.00779e-183
4.03583e-183
2.03981e-183
1.2188e-183
5.56196e-181
5.58857e-181
2.26954e-181
1.76723e-181
5.19292e-181
1.02968e-181
9.81197e-183
1.33929e-182
4.54247e-183
9.2942e-184
3.43557e-183
7.93854e-182
9.07474e-181
6.17422e-180
4.16204e-180
5.07982e-182
3.654e-184
1.00696e-184
6.80887e-185
2.18527e-185
2.1969e-181
7.16074e-181
3.11638e-180
9.07328e-180
3.38827e-180
3.01319e-182
3.47784e-184
5.39638e-185
4.78761e-185
4.17519e-185
5.78677e-181
1.64373e-180
5.37507e-180
9.38291e-180
2.32109e-180
2.79428e-182
7.094e-184
6.60806e-185
5.67015e-185
1.18423e-184
1.34244e-180
3.01603e-180
7.41435e-180
8.97349e-180
1.82947e-180
5.82084e-182
8.99087e-183
1.11572e-183
2.15147e-184
1.75429e-184
3.57697e-180
6.49195e-180
8.48632e-180
7.84148e-180
1.45085e-180
1.55398e-181
5.27288e-182
1.69404e-182
4.23771e-183
1.82706e-183
5.46306e-180
6.78677e-180
7.20295e-180
4.32561e-180
5.98297e-181
1.04945e-181
4.67575e-182
2.92582e-182
2.08612e-182
1.38182e-182
2.57429e-180
2.7454e-180
2.40091e-180
8.28267e-181
2.21282e-181
1.34114e-181
1.08775e-181
5.24009e-182
2.11165e-182
1.32545e-182
6.68794e-181
6.7439e-181
5.81041e-181
3.84281e-181
2.50226e-181
1.77726e-181
3.75888e-182
3.35616e-183
7.39915e-184
4.38109e-184
8.35756e-181
8.85455e-181
5.66405e-181
5.18875e-181
2.95056e-181
5.75533e-182
8.05764e-183
9.51586e-184
5.44286e-184
2.59584e-184
1.46215e-180
9.31447e-181
2.56368e-181
2.68557e-181
5.56701e-181
9.46303e-182
4.29618e-183
2.31982e-183
2.61202e-183
3.11723e-184
3.70914e-184
9.67231e-185
3.78247e-183
6.65616e-181
8.91865e-181
1.3515e-182
1.78702e-184
1.75543e-185
1.23196e-185
3.37129e-186
3.6159e-183
3.18274e-183
5.78875e-182
1.97995e-180
9.58594e-181
1.64367e-182
4.67488e-184
1.37971e-185
8.32654e-186
1.50389e-185
1.27889e-182
1.90545e-182
2.23121e-181
2.81568e-180
9.92968e-181
2.80152e-182
2.83398e-183
1.29012e-184
2.04372e-185
2.38013e-185
3.03641e-182
8.39137e-182
9.23376e-181
4.32582e-180
9.19204e-181
8.19025e-182
4.14849e-182
5.19163e-183
1.20573e-183
4.5828e-184
2.97285e-181
7.9152e-181
3.66162e-180
5.86415e-180
1.0017e-180
3.38896e-181
2.50888e-181
6.98073e-182
3.39083e-182
2.32745e-182
2.53044e-180
4.51016e-180
6.08922e-180
5.08036e-180
8.88885e-181
4.00594e-181
3.14093e-181
1.89766e-181
1.44867e-181
7.32424e-182
4.2939e-180
4.9214e-180
5.08403e-180
2.05619e-180
6.90575e-181
5.95218e-181
5.83435e-181
2.05544e-181
4.05776e-182
6.96858e-183
2.19149e-180
2.20987e-180
1.65969e-180
8.25064e-181
6.35095e-181
5.81583e-181
3.50866e-181
3.05541e-182
1.29184e-183
9.80231e-185
1.25435e-180
1.11333e-180
9.55637e-181
8.74016e-181
7.47323e-181
2.95623e-181
4.516e-182
2.18143e-183
1.16429e-184
3.93899e-185
1.48184e-180
9.47256e-181
4.13611e-181
3.79657e-181
7.34374e-181
6.22885e-181
2.48501e-182
6.52422e-184
2.89421e-184
8.46694e-185
6.34995e-185
1.11073e-185
3.98467e-185
6.51335e-183
1.79961e-181
1.17662e-181
1.43763e-183
9.17386e-186
2.99971e-187
7.36423e-188
7.64503e-184
1.44858e-184
7.44985e-184
4.35531e-182
3.2039e-181
1.21318e-181
3.16151e-183
3.83022e-185
1.02482e-186
4.72824e-187
3.06438e-183
2.35626e-183
1.53776e-182
1.82825e-181
5.4911e-181
1.41974e-181
1.2814e-182
6.90638e-184
9.61858e-185
2.27985e-185
2.05451e-182
4.02481e-182
1.52556e-181
5.69807e-181
7.49839e-181
3.9905e-181
2.67207e-181
3.41012e-182
1.06488e-182
4.54741e-183
2.46019e-181
4.47718e-181
1.04403e-180
1.74901e-180
1.34717e-180
1.43355e-180
1.39701e-180
5.38366e-181
3.61514e-181
2.64995e-181
2.44824e-180
3.62935e-180
4.39726e-180
3.06861e-180
1.98065e-180
2.25414e-180
1.50496e-180
5.31787e-181
2.00721e-181
7.86802e-182
5.72328e-180
5.41022e-180
4.74288e-180
2.96931e-180
2.59778e-180
2.75383e-180
1.55685e-180
2.09419e-181
1.40523e-182
1.29999e-183
4.97038e-180
4.08634e-180
3.11369e-180
2.50424e-180
2.52579e-180
2.48517e-180