/*--------------------------------*- C++ -*----------------------------------*\
  =========                 |
  \\      /  F ield         | OpenFOAM: The Open Source CFD Toolbox
   \\    /   O peration     | Website:  https://openfoam.org
    \\  /    A nd           | Version:  9
     \\/     M anipulation  |
\*---------------------------------------------------------------------------*/
FoamFile
{
    format      ascii;
    class       volScalarField;
    location    "79";
    object      alpha.gas;
}
// * * * * * * * * * * * * * * * * * * * * * * * * * * * * * * * * * * * * * //

dimensions      [0 0 0 0 0 0 0];

internalField   nonuniform List<scalar> 
137980
(
0.327024
0.321756
0.3199
0.314926
0.310524
0.308045
0.307493
0.306999
0.302309
0.296628
0.333511
0.330586
0.324617
0.31712
0.310076
0.306342
0.306089
0.306907
0.303271
0.297042
0.332114
0.33174
0.329003
0.322821
0.3146
0.307333
0.30356
0.302532
0.300282
0.297332
0.332647
0.332475
0.331712
0.328126
0.321788
0.314104
0.307052
0.303007
0.301773
0.302186
0.333762
0.333821
0.334039
0.332671
0.328706
0.323214
0.31662
0.311099
0.308886
0.310741
0.334687
0.334782
0.335523
0.335553
0.333872
0.330209
0.325811
0.321241
0.318468
0.319728
0.33547
0.335444
0.335995
0.3366
0.336422
0.334879
0.331999
0.328835
0.326536
0.326782
0.336595
0.336392
0.336351
0.336597
0.336879
0.336645
0.335709
0.334013
0.332503
0.332641
0.338386
0.337747
0.337143
0.336778
0.336737
0.336727
0.336439
0.335873
0.335178
0.335313
0.340519
0.339007
0.338376
0.337574
0.337192
0.336857
0.336263
0.335362
0.33469
0.334512
0.334657
0.326444
0.322723
0.317957
0.313784
0.311779
0.310405
0.307088
0.302131
0.292584
0.337559
0.332369
0.326778
0.318867
0.31215
0.309381
0.310608
0.311598
0.305128
0.295846
0.334828
0.332558
0.329434
0.322465
0.313936
0.307809
0.305775
0.305756
0.301969
0.296651
0.336603
0.334662
0.332501
0.3273
0.31925
0.309955
0.302756
0.29958
0.298792
0.298977
0.338162
0.33703
0.336094
0.332609
0.32678
0.318228
0.308919
0.302378
0.299943
0.302728
0.338992
0.338579
0.338655
0.337239
0.333256
0.327271
0.31951
0.312188
0.308286
0.310425
0.339689
0.33955
0.340001
0.340105
0.338071
0.334094
0.329124
0.323772
0.319921
0.320091
0.340867
0.340568
0.340564
0.340943
0.34098
0.338938
0.335678
0.332725
0.330378
0.330153
0.342978
0.341945
0.341358
0.3412
0.341571
0.341554
0.340257
0.338979
0.33797
0.336126
0.345213
0.343026
0.342698
0.341948
0.341915
0.342017
0.341623
0.341008
0.340744
0.336294
0.334767
0.335042
0.327351
0.322352
0.320065
0.319754
0.317959
0.313269
0.307078
0.295755
0.336022
0.333501
0.328822
0.321342
0.316034
0.314039
0.313909
0.312341
0.302263
0.290838
0.339161
0.332877
0.327349
0.320052
0.313139
0.30958
0.309461
0.30799
0.299237
0.292061
0.34029
0.335952
0.330272
0.322034
0.31269
0.305846
0.3023
0.299838
0.295628
0.293893
0.34204
0.339725
0.335425
0.328794
0.318402
0.306478
0.297939
0.293723
0.293206
0.293725
0.3431
0.342424
0.340168
0.335336
0.327094
0.315417
0.303505
0.295565
0.293505
0.296289
0.343628
0.343762
0.343489
0.340407
0.334839
0.326395
0.31587
0.306217
0.300426
0.304402
0.345701
0.34552
0.345471
0.344296
0.340393
0.335161
0.328598
0.322024
0.318
0.31978
0.349149
0.347694
0.347072
0.3465
0.344329
0.340428
0.336599
0.333518
0.333374
0.334016
0.35241
0.349727
0.349067
0.347733
0.34729
0.34558
0.342397
0.339795
0.340343
0.342668
0.334624
0.339348
0.337472
0.333239
0.334599
0.338325
0.339744
0.338603
0.337767
0.326761
0.339294
0.337457
0.334877
0.331512
0.329393
0.329778
0.331306
0.330397
0.323463
0.309306
0.346296
0.336878
0.329833
0.324804
0.321334
0.321266
0.323346
0.323299
0.315442
0.30149
0.342192
0.337192
0.329647
0.322059
0.315788
0.313107
0.312969
0.312855
0.307229
0.298225
0.343028
0.339567
0.333053
0.323571
0.314403
0.308097
0.304072
0.302196
0.299247
0.293623
0.344638
0.342759
0.338229
0.329332
0.317256
0.306186
0.298271
0.293561
0.290479
0.287532
0.346196
0.346006
0.343026
0.336063
0.324374
0.310813
0.299273
0.290916
0.288019
0.288074
0.349284
0.349271
0.347727
0.342207
0.332736
0.320744
0.308821
0.299022
0.294503
0.297562
0.353003
0.35154
0.350782
0.34667
0.33909
0.329758
0.320975
0.315055
0.313883
0.321938
0.356757
0.352696
0.352705
0.350569
0.345856
0.339852
0.334814
0.329759
0.319356
0.333324
0.338738
0.342551
0.346732
0.345768
0.347988
0.352585
0.359126
0.363347
0.362605
0.336712
0.34931
0.344631
0.344974
0.345785
0.345652
0.348514
0.355414
0.363529
0.350036
0.320148
0.35445
0.343294
0.337195
0.335524
0.335575
0.339501
0.346488
0.351749
0.337401
0.305725
0.344522
0.339013
0.331981
0.327071
0.325631
0.328448
0.33363
0.336396
0.324764
0.300958
0.343195
0.338034
0.330461
0.323457
0.318873
0.318392
0.321041
0.322145
0.313636
0.299167
0.345641
0.341151
0.333009
0.323086
0.315575
0.311476
0.309842
0.308741
0.303091
0.294058
0.349752
0.34727
0.339717
0.326672
0.315051
0.308042
0.302711
0.297668
0.293031
0.283451
0.355101
0.355246
0.348106
0.333402
0.316999
0.30628
0.29823
0.290252
0.285819
0.285255
0.358922
0.358918
0.353816
0.340058
0.321828
0.308587
0.301644
0.295231
0.290492
0.300968
0.35788
0.356099
0.35415
0.347106
0.333222
0.320025
0.315358
0.309981
0.302786
0.322751
0.343015
0.346086
0.350937
0.352911
0.356438
0.36511
0.380164
0.380051
0.371665
0.332269
0.357775
0.350999
0.353785
0.356201
0.358874
0.369624
0.382124
0.390526
0.367322
0.324771
0.359258
0.349141
0.346222
0.347284
0.351476
0.361227
0.376583
0.386976
0.362879
0.313686
0.346154
0.340939
0.336843
0.336532
0.341316
0.351584
0.365377
0.373948
0.351546
0.301696
0.343005
0.336909
0.332118
0.329846
0.333046
0.341929
0.352913
0.358226
0.336825
0.299384
0.344324
0.337009
0.33202
0.327433
0.326903
0.332922
0.339871
0.341721
0.32279
0.296553
0.345761
0.345365
0.337934
0.327233
0.322724
0.324066
0.325522
0.321218
0.305589
0.283551
0.345623
0.360712
0.345991
0.326712
0.318246
0.315409
0.312197
0.301887
0.285419
0.258651
0.350849
0.362141
0.35149
0.327017
0.312531
0.308734
0.306799
0.295278
0.275321
0.26773
0.341457
0.337914
0.351133
0.335401
0.320729
0.315413
0.315132
0.305697
0.28788
0.306009
0.343549
0.349408
0.355161
0.361276
0.372172
0.398034
0.408794
0.355043
0.366554
0.26428
0.369285
0.360153
0.363647
0.37039
0.385458
0.405385
0.405103
0.364497
0.346349
0.266644
0.365417
0.359304
0.359928
0.366282
0.380008
0.399549
0.405098
0.373786
0.333919
0.2677
0.350301
0.348146
0.349499
0.357937
0.373576
0.393538
0.401532
0.370008
0.321717
0.269443
0.345021
0.341628
0.343422
0.353048
0.368977
0.38477
0.389551
0.3588
0.310439
0.268887
0.344268
0.339601
0.34157
0.351034
0.363571
0.372102
0.371186
0.342095
0.299305
0.265323
0.341819
0.341235
0.342823
0.347647
0.354528
0.357175
0.347524
0.320734
0.285986
0.258776
0.340821
0.352263
0.342459
0.339913
0.340641
0.337146
0.320897
0.294823
0.267598
0.247548
0.343758
0.350425
0.336399
0.32764
0.323857
0.313059
0.291733
0.263365
0.236319
0.226992
0.330457
0.326898
0.339578
0.328231
0.317126
0.300999
0.276568
0.24517
0.222811
0.234149
0.33898
0.355917
0.369219
0.380725
0.411398
0.411352
0.383607
0.341163
0.227961
0.144609
0.387962
0.379461
0.39519
0.411743
0.416551
0.402759
0.357951
0.292649
0.19728
0.150569
0.375547
0.378103
0.391775
0.406873
0.410194
0.386926
0.329604
0.253555
0.184209
0.163031
0.359999
0.365314
0.378793
0.393114
0.395954
0.365468
0.301782
0.231034
0.186525
0.178215
0.353295
0.35634
0.367629
0.376378
0.376
0.341515
0.281331
0.224153
0.193584
0.193919
0.35058
0.352392
0.360077
0.362312
0.353646
0.319672
0.269505
0.22705
0.203473
0.210362
0.350942
0.353159
0.355334
0.34974
0.334001
0.3028
0.264746
0.232452
0.214654
0.224491
0.355064
0.355266
0.349607
0.338197
0.318407
0.289982
0.261181
0.236654
0.224388
0.235222
0.35521
0.352574
0.342432
0.327372
0.30523
0.278652
0.255554
0.239706
0.231309
0.238967
0.331709
0.332757
0.339108
0.318684
0.293131
0.267894
0.248954
0.238104
0.231972
0.242857
0.349853
0.374667
0.386012
0.387317
0.397056
0.370136
0.302732
0.202142
0.134043
0.134845
0.406789
0.411639
0.413754
0.408113
0.383922
0.327669
0.242737
0.168411
0.149531
0.184628
0.394251
0.408609
0.411016
0.394967
0.350124
0.274769
0.202185
0.170835
0.181185
0.240835
0.382014
0.394175
0.395371
0.367532
0.310189
0.238644
0.191322
0.181334
0.223077
0.288074
0.371733
0.375999
0.370798
0.337744
0.279235
0.220074
0.1949
0.200156
0.257985
0.317107
0.359178
0.358841
0.348253
0.312266
0.258635
0.216194
0.202098
0.221665
0.281717
0.333075
0.348698
0.345463
0.330163
0.292657
0.248366
0.218367
0.211433
0.239445
0.295684
0.343281
0.34326
0.33745
0.316033
0.280344
0.243942
0.221876
0.219953
0.251474
0.306658
0.352447
0.341532
0.330243
0.306419
0.273487
0.242499
0.225567
0.226481
0.258927
0.306403
0.351728
0.330814
0.313887
0.294798
0.266437
0.241409
0.229113
0.230145
0.254756
0.299415
0.343458
0.344453
0.36585
0.373093
0.364339
0.321352
0.245204
0.173222
0.138626
0.139199
0.155825
0.396413
0.386826
0.375891
0.340985
0.273968
0.199977
0.156667
0.149169
0.176019
0.200365
0.388341
0.383268
0.357911
0.299606
0.225919
0.17439
0.160599
0.178396
0.221162
0.255292
0.374375
0.366127
0.325402
0.259802
0.201742
0.176893
0.175861
0.218343
0.265498
0.304269
0.36025
0.34171
0.294133
0.235429
0.19557
0.183975
0.202907
0.254818
0.300415
0.337694
0.345609
0.319204
0.272425
0.224491
0.198676
0.195659
0.231041
0.283428
0.326593
0.360596
0.331448
0.30252
0.259604
0.22118
0.204205
0.209822
0.253781
0.305168
0.347628
0.38026
0.319945
0.29248
0.253672
0.222337
0.210285
0.222523
0.26862
0.319813
0.363652
0.396271
0.30983
0.287045
0.251859
0.224719
0.21576
0.232081
0.279415
0.333531
0.382432
0.41037
0.298339
0.277579
0.248552
0.226639
0.220405
0.234804
0.276253
0.330858
0.379605
0.410012
0.356828
0.367352
0.367944
0.342398
0.283643
0.222867
0.1752
0.154053
0.147598
0.144606
0.383935
0.37825
0.359953
0.318326
0.254725
0.202037
0.167055
0.15308
0.151048
0.156169
0.378802
0.368934
0.33785
0.285248
0.226713
0.18357
0.160815
0.156342
0.166196
0.184572
0.367028
0.348936
0.30751
0.253115
0.203161
0.171662
0.16264
0.168856
0.191813
0.218873
0.349539
0.322771
0.277615
0.227754
0.189617
0.172177
0.169706
0.189476
0.219488
0.250356
0.329132
0.297239
0.253592
0.210993
0.183898
0.175638
0.182699
0.209891
0.243987
0.281809
0.310108
0.277254
0.236659
0.202174
0.184569
0.181302
0.195341
0.226733
0.267065
0.312263
0.294042
0.265288
0.227006
0.197933
0.185469
0.185936
0.205372
0.239925
0.286902
0.346217
0.282447
0.257421
0.222667
0.196219
0.185662
0.190134
0.213226
0.24805
0.298376
0.368453
0.26868
0.246666
0.219041
0.19628
0.186829
0.192234
0.212071
0.247195
0.310694
0.395454
0.348572
0.345949
0.333738
0.311446
0.282404
0.253653
0.235445
0.23629
0.23637
0.263926
0.345404
0.340486
0.323217
0.29745
0.269258
0.247339
0.236873
0.241115
0.252728
0.257169
0.324773
0.320365
0.30344
0.280431
0.256981
0.24191
0.236804
0.24484
0.253188
0.240541
0.290853
0.288483
0.277988
0.260769
0.244014
0.234966
0.234349
0.241622
0.246613
0.2225
0.259926
0.256701
0.250145
0.239349
0.229207
0.224909
0.226362
0.232039
0.233838
0.205755
0.240271
0.234807
0.227452
0.219477
0.213374
0.211001
0.21197
0.216317
0.216848
0.187507
0.227153
0.219784
0.211596
0.204642
0.199622
0.195844
0.194623
0.19823
0.200911
0.186337
0.217249
0.210618
0.202427
0.195437
0.189834
0.184037
0.178938
0.179511
0.18002
0.190884
0.212467
0.206132
0.198358
0.190928
0.184954
0.179849
0.172979
0.164749
0.164729
0.189618
0.206269
0.201928
0.196658
0.190308
0.184396
0.180913
0.180202
0.179024
0.173715
0.200964
0.255018
0.232081
0.2269
0.215045
0.211083
0.211257
0.212847
0.215821
0.219172
0.225011
0.258281
0.220074
0.209326
0.201482
0.197927
0.199056
0.20302
0.207065
0.210856
0.21425
0.232026
0.208555
0.200067
0.194833
0.19027
0.18909
0.191413
0.195539
0.200211
0.203972
0.206093
0.198838
0.193235
0.188916
0.184133
0.180937
0.181645
0.184168
0.187523
0.19039
0.192281
0.190776
0.188552
0.185916
0.181698
0.177089
0.175187
0.175383
0.176393
0.174258
0.18347
0.184277
0.185317
0.185445
0.183626
0.179294
0.174977
0.172273
0.169424
0.161017
0.178578
0.180713
0.183499
0.186096
0.187625
0.186492
0.182301
0.176336
0.166184
0.157465
0.177166
0.180056
0.183377
0.187182
0.191458
0.195384
0.194014
0.186069
0.16899
0.15879
0.177881
0.180961
0.184626
0.189707
0.195787
0.203544
0.209432
0.203711
0.179259
0.15954
0.177544
0.18089
0.186208
0.192595
0.200599
0.212408
0.230505
0.244908
0.211993
0.171446
0.258967
0.239502
0.223618
0.214163
0.205729
0.197852
0.195525
0.19977
0.20814
0.22137
0.257937
0.239947
0.223507
0.212089
0.203393
0.194916
0.192789
0.194951
0.200048
0.203627
0.242178
0.228796
0.214814
0.207221
0.202253
0.197827
0.193915
0.194772
0.197926
0.197336
0.229091
0.217291
0.206666
0.203055
0.202717
0.203606
0.203519
0.202878
0.202031
0.197728
0.214877
0.204181
0.199718
0.201012
0.205393
0.213043
0.219457
0.217984
0.212985
0.202532
0.200132
0.194133
0.196646
0.201956
0.213171
0.227576
0.23996
0.238339
0.228488
0.209224
0.189324
0.190772
0.197836
0.211021
0.228986
0.248109
0.262751
0.260187
0.24563
0.218531
0.185733
0.194005
0.207222
0.225506
0.247735
0.270807
0.285864
0.280389
0.261417
0.233427
0.188316
0.201021
0.216166
0.237199
0.26291
0.288995
0.304211
0.29869
0.269201
0.234488
0.190023
0.205668
0.223623
0.246137
0.271975
0.296108
0.304218
0.295903
0.264123
0.228342
0.228017
0.235962
0.24371
0.248761
0.251417
0.253151
0.258416
0.268579
0.286541
0.323868
0.225841
0.23564
0.246344
0.252901
0.256353
0.258515
0.262148
0.268305
0.273682
0.296551
0.227664
0.240221
0.250814
0.2574
0.262216
0.265898
0.269744
0.27595
0.284557
0.30598
0.229839
0.244004
0.255936
0.263665
0.269074
0.273217
0.277338
0.281475
0.287946
0.307806
0.234818
0.248819
0.260804
0.269335
0.274661
0.278349
0.280707
0.282395
0.286348
0.308587
0.240528
0.254357
0.266125
0.274616
0.279309
0.281121
0.28027
0.281142
0.292457
0.317378
0.247331
0.260732
0.272803
0.281256
0.284051
0.282184
0.279083
0.287148
0.30814
0.327853
0.254172
0.268078
0.282168
0.288532
0.288375
0.283458
0.280973
0.296231
0.318687
0.33331
0.257815
0.276695
0.292667
0.29369
0.290305
0.283862
0.282905
0.298046
0.311569
0.321193
0.258309
0.288735
0.304955
0.298483
0.295899
0.291128
0.286932
0.286118
0.289205
0.295658
0.248731
0.276942
0.303534
0.324866
0.341011
0.360631
0.389853
0.386747
0.325067
0.347459
0.247692
0.279409
0.312611
0.339557
0.359436
0.378162
0.402243
0.408415
0.38217
0.376802
0.256378
0.289727
0.323999
0.352069
0.372969
0.392094
0.41485
0.42037
0.399187
0.369062
0.263965
0.29989
0.335751
0.364736
0.384881
0.401845
0.418876
0.420156
0.399516
0.383747
0.272941
0.310766
0.345682
0.373961
0.39249
0.406041
0.417708
0.416877
0.405514
0.400235
0.28449
0.319628
0.350754
0.378187
0.395365
0.406074
0.412428
0.413381
0.408855
0.407335
0.295643
0.323509
0.351611
0.378886
0.392368
0.398043
0.40364
0.408055
0.409138
0.40854
0.304205
0.323286
0.348457
0.371795
0.381698
0.384912
0.392455
0.402918
0.410137
0.410266
0.306897
0.322215
0.346066
0.362618
0.369075
0.370239
0.377058
0.391384
0.406472
0.415491
0.301741
0.32995
0.348708
0.357175
0.360721
0.357027
0.355932
0.366937
0.38389
0.38829
0.255763
0.249438
0.258833
0.263165
0.261893
0.257579
0.267381
0.29316
0.307281
0.344949
0.246241
0.235992
0.247674
0.263025
0.272796
0.272594
0.278579
0.294452
0.303152
0.318873
0.241108
0.233577
0.24524
0.265397
0.283316
0.291927
0.293419
0.301917
0.315139
0.334142
0.223636
0.228996
0.243793
0.267923
0.295134
0.315282
0.313306
0.315892
0.328155
0.348539
0.215826
0.225766
0.24381
0.275347
0.311098
0.341835
0.337223
0.331961
0.340275
0.353032
0.212713
0.224599
0.250785
0.289062
0.33229
0.373044
0.367029
0.349869
0.351181
0.354631
0.212437
0.229324
0.263181
0.308671
0.357439
0.402636
0.396316
0.371
0.359066
0.354081
0.213015
0.239424
0.281686
0.332543
0.381566
0.426582
0.423881
0.395051
0.366765
0.347571
0.215586
0.25503
0.303319
0.356603
0.401227
0.438171
0.448703
0.428061
0.389592
0.37314
0.22493
0.27596
0.326645
0.38057
0.419965
0.44324
0.472509
0.468835
0.426861
0.436361
0.35143
0.260438
0.25319
0.242877
0.241239
0.253597
0.273957
0.294298
0.312813
0.327235
0.295608
0.237606
0.237674
0.220869
0.212669
0.220274
0.249035
0.287793
0.320208
0.334183
0.318025
0.262432
0.246089
0.219875
0.202358
0.199168
0.214806
0.250067
0.300463
0.323816
0.295765
0.269113
0.257258
0.237945
0.211755
0.194634
0.196456
0.21843
0.259433
0.295824
0.271218
0.265977
0.258808
0.243918
0.22577
0.200434
0.192125
0.201156
0.231991
0.273982
0.25185
0.250393
0.243559
0.238615
0.235242
0.22234
0.196871
0.194045
0.217289
0.262739
0.238242
0.235536
0.230598
0.232751
0.241465
0.238975
0.218969
0.197637
0.212993
0.263754
0.227628
0.221939
0.220516
0.228586
0.246985
0.25904
0.247641
0.217088
0.215357
0.263223
0.214668
0.210145
0.215907
0.233729
0.262604
0.291046
0.281644
0.253015
0.217116
0.246558
0.197874
0.203244
0.225451
0.260812
0.297259
0.350384
0.348609
0.330095
0.282814
0.34412
0.337928
0.333758
0.354868
0.364919
0.359322
0.346546
0.336302
0.331589
0.329463
0.30701
0.304845
0.345194
0.352367
0.342332
0.334727
0.330867
0.335338
0.341442
0.349825
0.361612
0.316942
0.332776
0.325437
0.320486
0.325907
0.337046
0.353527
0.377167
0.403345
0.433036
0.312449
0.309717
0.303692
0.313479
0.332426
0.35774
0.390641
0.427725
0.464331
0.505578
0.294983
0.292948
0.299261
0.318973
0.348243
0.38752
0.431642
0.474214
0.51413
0.571042
0.269851
0.277625
0.292872
0.321319
0.364789
0.418788
0.472714
0.515053
0.547594
0.592982
0.258351
0.260006
0.280623
0.310711
0.354419
0.410742
0.469229
0.522475
0.579254
0.618796
0.260866
0.256833
0.264719
0.287187
0.322717
0.37305
0.430601
0.496325
0.58583
0.65674
0.260482
0.264217
0.261165
0.264631
0.282855
0.315339
0.354197
0.415386
0.558888
0.65672
0.267141
0.275235
0.267545
0.264277
0.268193
0.280298
0.29109
0.321898
0.471809
0.62743
0.334613
0.342504
0.351493
0.367067
0.376368
0.378685
0.380707
0.374125
0.37506
0.383538
0.338114
0.343964
0.350827
0.36092
0.371609
0.379115
0.389333
0.399176
0.416316
0.408666
0.34153
0.344173
0.349781
0.357267
0.365174
0.376654
0.38944
0.400521
0.408969
0.397181
0.343805
0.345037
0.349436
0.354184
0.359083
0.370644
0.384591
0.404525
0.413886
0.401713
0.348448
0.348153
0.349651
0.351141
0.356064
0.365395
0.380642
0.411365
0.426429
0.428914
0.356498
0.353918
0.351764
0.351503
0.355327
0.363402
0.377469
0.410323
0.436404
0.456769
0.36952
0.362516
0.356315
0.3532
0.355707
0.362303
0.377157
0.408121
0.440711
0.440225
0.386563
0.373136
0.364637
0.357696
0.356784
0.364385
0.381316
0.410076
0.449713
0.44546
0.40796
0.390889
0.377071
0.360898
0.359732
0.36617
0.383916
0.410329
0.455453
0.48331
0.41191
0.401225
0.373103
0.350706
0.343308
0.345634
0.358781
0.38236
0.427685
0.48202
0.606343
0.612271
0.640641
0.672441
0.68821
0.70157
0.720125
0.723345
0.708157
0.695826
0.616209
0.615435
0.635222
0.667139
0.694728
0.718807
0.722286
0.716232
0.713441
0.712816
0.63696
0.632223
0.64239
0.669612
0.696729
0.712909
0.714892
0.711686
0.71215
0.713459
0.64453
0.65469
0.65144
0.662946
0.682474
0.697585
0.705153
0.708591
0.712716
0.70813
0.62241
0.664038
0.660526
0.660444
0.670647
0.682568
0.695461
0.709058
0.714327
0.705958
0.615127
0.662193
0.66674
0.666251
0.672867
0.685876
0.699585
0.711872
0.715084
0.70219
0.621807
0.664027
0.675529
0.683207
0.690209
0.702682
0.71891
0.719785
0.716071
0.70359
0.642171
0.6895
0.701793
0.715013
0.724773
0.731439
0.736502
0.732199
0.718036
0.706738
0.683004
0.727306
0.729414
0.718847
0.711298
0.708262
0.715361
0.713842
0.702954
0.705312
0.7148
0.725389
0.715154
0.705582
0.701564
0.691998
0.688169
0.688523
0.695729
0.701807
0.88119
0.8864
0.893791
0.904362
0.915655
0.927294
0.938942
0.948698
0.956539
0.962862
0.885157
0.889729
0.897068
0.906822
0.919212
0.932947
0.946856
0.958981
0.967122
0.972942
0.890921
0.894799
0.901261
0.909952
0.921259
0.934604
0.948934
0.963402
0.975623
0.981296
0.897597
0.901476
0.907064
0.914648
0.924406
0.936151
0.949288
0.962286
0.974969
0.984211
0.904908
0.909006
0.914215
0.920778
0.928909
0.938637
0.949683
0.961016
0.972265
0.982686
0.913458
0.917396
0.92211
0.927713
0.934362
0.942122
0.950833
0.96
0.969403
0.97844
0.923537
0.92664
0.930407
0.934959
0.94029
0.946334
0.952947
0.960004
0.967086
0.973679
0.933752
0.935777
0.938791
0.942372
0.946467
0.950956
0.955629
0.960117
0.963246
0.966137
0.940286
0.942043
0.944089
0.946222
0.948222
0.94899
0.949774
0.950837
0.951857
0.954157
0.942414
0.942854
0.943459
0.944091
0.944593
0.944077
0.942789
0.941792
0.941011
0.940332
0.99734
0.997321
0.997437
0.997663
0.997916
0.998189
0.998502
0.998844
0.999086
0.999141
0.997063
0.99697
0.996946
0.997188
0.997506
0.997886
0.998308
0.998584
0.99876
0.998843
0.996489
0.996225
0.996127
0.996401
0.996804
0.997282
0.997769
0.998179
0.998499
0.998674
0.995645
0.99517
0.995326
0.99569
0.996171
0.996751
0.997371
0.997913
0.998331
0.998609
0.995354
0.994702
0.994909
0.995337
0.995907
0.99653
0.997189
0.997819
0.998255
0.998607
0.995283
0.994847
0.995014
0.995414
0.995983
0.99659
0.997148
0.997825
0.998632
0.999041
0.995304
0.99516
0.995295
0.995659
0.996228
0.996894
0.997627
0.998411
0.999133
0.999448
0.995383
0.995518
0.995767
0.996163
0.99675
0.997491
0.99832
0.999045
0.999387
0.999575
0.995759
0.996064
0.996452
0.996932
0.997577
0.998343
0.998978
0.999145
0.999278
0.999453
0.996628
0.996941
0.997381
0.99795
0.998659
0.999147
0.99918
0.99915
0.999125
0.999197
0.999998
0.999998
0.999999
0.999999
0.999999
0.999999
0.999999
0.999999
0.999999
0.999999
0.999998
0.999998
0.999998
0.999999
0.999999
0.999999
0.999999
0.999999
0.999999
1
0.999998
0.999997
0.999997
0.999998
0.999998
0.999998
0.999999
0.999999
0.999999
0.999999
0.999997
0.999996
0.999996
0.999997
0.999997
0.999997
0.999997
0.999997
0.999998
0.999999
0.999996
0.999995
0.999995
0.999994
0.999993
0.999992
0.999994
0.999997
0.999999
1
0.999995
0.999992
0.99999
0.999989
0.999989
0.999994
0.999998
0.999999
1
1
0.999991
0.999989
0.999989
0.999991
0.999994
0.999998
0.999999
1
1
1
0.99999
0.999991
0.999994
0.999997
0.999999
0.999999
0.999999
0.999999
1
1
0.999994
0.999997
0.999999
0.999999
1
1
0.999999
0.999999
0.999999
0.999999
0.999998
0.999999
1
1
1
1
1
0.999999
0.999999
0.999999
0.226939
0.224349
0.221585
0.219483
0.218246
0.218143
0.218869
0.220849
0.223666
0.227238
0.221683
0.219545
0.216785
0.214459
0.213058
0.212806
0.213405
0.215
0.217351
0.219969
0.218963
0.215785
0.21281
0.210604
0.209165
0.208768
0.209204
0.210453
0.212358
0.214567
0.21903
0.215092
0.211387
0.208685
0.207012
0.206344
0.206573
0.207497
0.209081
0.211027
0.221525
0.21707
0.212679
0.209278
0.207058
0.205851
0.205732
0.206232
0.207429
0.209197
0.226012
0.22112
0.216142
0.21206
0.209081
0.20724
0.20649
0.206649
0.207473
0.208969
0.232028
0.227066
0.221639
0.216737
0.212972
0.21036
0.20892
0.20853
0.208902
0.210053
0.239159
0.23471
0.228965
0.223169
0.218391
0.214994
0.212882
0.211906
0.211906
0.212636
0.247165
0.242781
0.237032
0.230845
0.22526
0.221038
0.218256
0.216705
0.216187
0.216633
0.255394
0.25
0.244659
0.239276
0.233815
0.228885
0.225201
0.222778
0.221532
0.222058
0.227222
0.224813
0.222394
0.220606
0.219444
0.219215
0.219756
0.221374
0.223983
0.227357
0.222051
0.220273
0.217895
0.21586
0.214576
0.214299
0.214805
0.216222
0.218334
0.220855
0.219168
0.216673
0.214168
0.212239
0.210987
0.210637
0.211059
0.212221
0.213993
0.216049
0.218994
0.21596
0.212908
0.210572
0.209114
0.208611
0.208875
0.20977
0.211242
0.213063
0.221652
0.218023
0.214354
0.211406
0.209485
0.208532
0.20854
0.209074
0.210194
0.2118
0.226799
0.222703
0.218249
0.214497
0.211942
0.210422
0.209836
0.210037
0.210821
0.212214
0.234005
0.229953
0.224984
0.22021
0.216577
0.214312
0.213089
0.212758
0.21313
0.214192
0.242844
0.239593
0.234609
0.228967
0.223875
0.220257
0.218178
0.217196
0.217226
0.217971
0.252432
0.249943
0.245394
0.239601
0.233571
0.228534
0.225247
0.223496
0.222886
0.223367
0.261108
0.258639
0.255314
0.250688
0.244985
0.239334
0.234627
0.231391
0.229661
0.230156
0.227134
0.224596
0.222298
0.220706
0.219701
0.219568
0.220095
0.221569
0.223958
0.227279
0.222336
0.22057
0.218286
0.216455
0.21539
0.215268
0.215806
0.217182
0.219214
0.221607
0.219224
0.217294
0.215072
0.213407
0.212359
0.2122
0.212672
0.213861
0.215607
0.217646
0.218681
0.216375
0.214007
0.212037
0.210936
0.210756
0.211121
0.212064
0.213535
0.215341
0.221089
0.218234
0.215358
0.213054
0.21158
0.21108
0.2113
0.212043
0.213247
0.214834
0.226194
0.22286
0.219245
0.216242
0.214298
0.213396
0.213289
0.213651
0.214575
0.216011
0.233656
0.230552
0.226626
0.222724
0.219662
0.21793
0.217271
0.217315
0.217855
0.21906
0.243479
0.241741
0.238214
0.233632
0.229022
0.225516
0.223602
0.222947
0.223145
0.224102
0.254491
0.254237
0.251763
0.247221
0.241703
0.236604
0.233001
0.231059
0.230518
0.231167
0.262545
0.26407
0.263487
0.260704
0.255953
0.250552
0.245485
0.241514
0.239133
0.239655
0.226876
0.224187
0.222134
0.220739
0.219865
0.219812
0.220358
0.221769
0.224034
0.22721
0.222644
0.220676
0.218554
0.217022
0.216183
0.216202
0.216825
0.218222
0.220234
0.222634
0.219604
0.217809
0.215878
0.21449
0.213753
0.213802
0.214405
0.215671
0.21744
0.219521
0.218755
0.21691
0.215029
0.21361
0.212897
0.212978
0.213566
0.214657
0.216177
0.218
0.220559
0.218482
0.216321
0.21466
0.213793
0.213792
0.214258
0.21525
0.216635
0.218296
0.225102
0.222635
0.219894
0.217786
0.216613
0.216511
0.216877
0.217663
0.218862
0.220417
0.232231
0.230091
0.227331
0.224658
0.222596
0.221584
0.221618
0.222134
0.223125
0.224626
0.242496
0.242044
0.240238
0.237201
0.233717
0.230872
0.229343
0.229105
0.229564
0.230854
0.253935
0.256376
0.255857
0.253154
0.248928
0.244576
0.241269
0.239486
0.239034
0.239899
0.261386
0.265871
0.268275
0.267756
0.26507
0.260946
0.256581
0.252846
0.250144
0.250667
0.226625
0.224019
0.222167
0.220944
0.220239
0.220251
0.220848
0.222255
0.224459
0.227531
0.223019
0.220885
0.218993
0.217765
0.217192
0.217343
0.218096
0.219556
0.221592
0.224011
0.220278
0.218422
0.216745
0.215697
0.215347
0.215607
0.216407
0.217783
0.219629
0.221769
0.219255
0.217703
0.216208
0.215345
0.215059
0.215413
0.216288
0.217592
0.219237
0.221103
0.220598
0.219057
0.217498
0.216453
0.216236
0.216637
0.217526
0.218808
0.220389
0.222172
0.224236
0.222595
0.220689
0.219455
0.219218
0.219723
0.220688
0.221968
0.223513
0.225264
0.230543
0.229295
0.227678
0.226307
0.225419
0.22538
0.225995
0.227134
0.228605
0.23046
0.240267
0.241215
0.240954
0.239633
0.237627
0.235872
0.235077
0.235292
0.236109
0.2378
0.251542
0.255792
0.257571
0.256829
0.254396
0.251364
0.248982
0.247772
0.247642
0.248729
0.258197
0.264631
0.269042
0.271354
0.270851
0.268751
0.265894
0.263198
0.260856
0.261337
0.226603
0.224163
0.222484
0.221448
0.220947
0.221048
0.221735
0.223173
0.225407
0.228389
0.223612
0.221432
0.219804
0.218846
0.218549
0.218847
0.219739
0.221287
0.223379
0.225804
0.22125
0.219401
0.218018
0.217276
0.217248
0.217731
0.218744
0.220258
0.222187
0.22437
0.220223
0.218848
0.217829
0.217287
0.217412
0.218069
0.219184
0.220683
0.222487
0.224437
0.221182
0.220044
0.21905
0.218612
0.218928
0.219715
0.22099
0.222572
0.224356
0.22621
0.224234
0.223056
0.221903
0.221473
0.221908
0.223021
0.224568
0.226322
0.228222
0.23015
0.229353
0.228779
0.228117
0.227841
0.228065
0.22886
0.230251
0.232011
0.233963
0.236123
0.23772
0.239492
0.240584
0.240714
0.240292
0.239876
0.240096
0.240974
0.242313
0.244358
0.247854
0.253327
0.256781
0.257739
0.257242
0.255963
0.254914
0.254707
0.255046
0.256573
0.254111
0.261587
0.267297
0.271024
0.272803
0.272756
0.271772
0.270394
0.269135
0.270378
0.226852
0.22466
0.223181
0.222346
0.222061
0.222274
0.223046
0.224518
0.226767
0.22968
0.224487
0.222415
0.221013
0.2203
0.220252
0.220716
0.221736
0.223354
0.225509
0.227899
0.222563
0.220795
0.219688
0.21928
0.219483
0.220175
0.221364
0.222993
0.224991
0.227194
0.221676
0.220418
0.21968
0.219537
0.219988
0.220892
0.222221
0.223898
0.225823
0.227818
0.222395
0.221503
0.220964
0.22109
0.221738
0.222919
0.224508
0.226322
0.22826
0.230143
0.224865
0.224152
0.223628
0.2238
0.224875
0.2265
0.228415
0.23053
0.232653
0.234617
0.229215
0.228959
0.228946
0.229465
0.230563
0.232176
0.234224
0.236493
0.2388
0.241106
0.235767
0.237734
0.239602
0.240834
0.241697
0.242629
0.243928
0.245596
0.247433
0.249726
0.24428
0.249721
0.254226
0.256616
0.257407
0.257849
0.258265
0.259045
0.260022
0.261822
0.250349
0.257747
0.263822
0.268678
0.271718
0.273085
0.273516
0.273522
0.273328
0.274613
0.227387
0.225457
0.224207
0.223582
0.223509
0.223852
0.224727
0.226179
0.22838
0.231211
0.225661
0.223728
0.222541
0.222068
0.222204
0.222827
0.223967
0.225601
0.227736
0.230085
0.224223
0.222578
0.221708
0.221568
0.221934
0.222769
0.224049
0.225731
0.227768
0.229975
0.223519
0.222377
0.2219
0.222041
0.222671
0.223768
0.225245
0.227001
0.228983
0.230983
0.224118
0.223378
0.223283
0.223695
0.224675
0.22613
0.227883
0.229794
0.231763
0.23361
0.226213
0.225778
0.225839
0.226546
0.227977
0.229882
0.232072
0.234269
0.236374
0.238255
0.229872
0.229851
0.230298
0.231431
0.233151
0.235351
0.237852
0.240333
0.242683
0.24486
0.235262
0.236857
0.238849
0.240827
0.242631
0.244563
0.246739
0.248935
0.250988
0.253243
0.241998
0.246623
0.250935
0.254186
0.256345
0.25787
0.259499
0.260967
0.262129
0.26378
0.247907
0.254353
0.259981
0.265039
0.268966
0.271565
0.272873
0.273374
0.273369
0.274487
0.228187
0.226492
0.225479
0.225091
0.225162
0.225601
0.226553
0.228021
0.230126
0.232881
0.227076
0.225275
0.224247
0.22397
0.224276
0.225068
0.226305
0.227963
0.229992
0.232262
0.226128
0.224605
0.223968
0.22397
0.224437
0.225369
0.226691
0.228379
0.230368
0.232532
0.225702
0.224673
0.224349
0.224665
0.225433
0.226639
0.228122
0.229874
0.231828
0.233773
0.226236
0.225698
0.225779
0.226449
0.227628
0.229209
0.230985
0.232846
0.234726
0.236467
0.228068
0.228034
0.228393
0.229425
0.23106
0.233088
0.235279
0.23738
0.23932
0.240983
0.231313
0.23155
0.232313
0.233845
0.23595
0.238448
0.241042
0.243456
0.245564
0.247344
0.235994
0.23725
0.239095
0.241296
0.243728
0.246314
0.24892
0.251316
0.253323
0.255149
0.242029
0.245031
0.248358
0.251735
0.254672
0.257292
0.259569
0.261468
0.26265
0.263861
0.247618
0.252122
0.256626
0.261358
0.265579
0.268835
0.270927
0.271938
0.27214
0.272944
0.229382
0.227757
0.226862
0.226664
0.226852
0.227393
0.22838
0.229788
0.231908
0.234697