/*--------------------------------*- C++ -*----------------------------------*\
  =========                 |
  \\      /  F ield         | OpenFOAM: The Open Source CFD Toolbox
   \\    /   O peration     | Website:  https://openfoam.org
    \\  /    A nd           | Version:  9
     \\/     M anipulation  |
\*---------------------------------------------------------------------------*/
FoamFile
{
    format      ascii;
    class       volScalarField;
    location    "79";
    object      CO2.gas;
}
// * * * * * * * * * * * * * * * * * * * * * * * * * * * * * * * * * * * * * //

dimensions      [0 0 0 0 0 0 0];

internalField   nonuniform List<scalar> 
137980
(
0.616955
0.618416
0.619008
0.615399
0.611148
0.609027
0.608077
0.607565
0.607384
0.608013
0.618421
0.619523
0.620477
0.618273
0.613263
0.610562
0.609752
0.609559
0.609796
0.610172
0.619441
0.620695
0.621175
0.620167
0.617088
0.612316
0.610419
0.61017
0.610835
0.611662
0.620964
0.621666
0.621962
0.621632
0.62017
0.617348
0.613443
0.611581
0.611411
0.612764
0.621826
0.622085
0.622238
0.622257
0.621793
0.620501
0.61859
0.616346
0.614555
0.614293
0.62206
0.622182
0.622289
0.622469
0.622406
0.62185
0.620711
0.619521
0.618484
0.617805
0.622058
0.621938
0.621904
0.62221
0.622521
0.622314
0.621533
0.620541
0.619721
0.619019
0.621519
0.621103
0.620861
0.621241
0.622131
0.622204
0.62172
0.620743
0.620034
0.619267
0.620573
0.620143
0.620136
0.620512
0.621387
0.621526
0.621252
0.620443
0.619904
0.618859
0.619447
0.619461
0.619619
0.62023
0.620825
0.620885
0.620674
0.62014
0.61969
0.618556
0.617298
0.618458
0.617985
0.614211
0.610625
0.60879
0.607381
0.605458
0.604084
0.604688
0.618951
0.619654
0.619604
0.61673
0.612186
0.610041
0.609067
0.608209
0.607876
0.60818
0.619719
0.620512
0.620216
0.618411
0.61485
0.611065
0.609852
0.609601
0.609853
0.609929
0.620969
0.621413
0.6213
0.620434
0.618232
0.61467
0.611468
0.610647
0.610645
0.611925
0.621656
0.621848
0.621847
0.621452
0.620409
0.618545
0.615903
0.61316
0.61225
0.612716
0.621903
0.622031
0.622089
0.621999
0.621508
0.620453
0.619113
0.617518
0.61611
0.615135
0.621967
0.621954
0.621945
0.622123
0.622016
0.621405
0.620519
0.619554
0.618786
0.61786
0.621688
0.621587
0.621443
0.621696
0.622026
0.621733
0.62107
0.620286
0.619697
0.618965
0.621061
0.620932
0.620941
0.621179
0.6216
0.621496
0.621004
0.620306
0.619853
0.619195
0.620331
0.620442
0.620656
0.621009
0.621182
0.62106
0.620675
0.620177
0.619825
0.619009
0.617865
0.618224
0.617384
0.613888
0.610478
0.608221
0.605679
0.604404
0.601865
0.597464
0.619308
0.619493
0.618313
0.615439
0.611429
0.608941
0.606778
0.604145
0.602013
0.599868
0.619929
0.62016
0.619183
0.616773
0.613177
0.60971
0.60815
0.605888
0.604763
0.604615
0.620959
0.620975
0.620438
0.618983
0.615973
0.612002
0.609709
0.608766
0.608435
0.60894
0.621552
0.621586
0.621278
0.620431
0.618832
0.616181
0.612644
0.610668
0.610108
0.610622
0.62181
0.621882
0.621786
0.6214
0.620467
0.618896
0.616839
0.614585
0.613076
0.612536
0.621901
0.62193
0.621895
0.621854
0.621356
0.620375
0.619119
0.617786
0.616661
0.615533
0.621769
0.621783
0.62171
0.621729
0.621731
0.621129
0.620305
0.619419
0.618807
0.617973
0.621498
0.621515
0.621509
0.621554
0.621584
0.621295
0.620671
0.62
0.619638
0.619077
0.621062
0.621259
0.621371
0.621442
0.621362
0.621081
0.620615
0.620121
0.619814
0.619183
0.618041
0.61786
0.616726
0.613821
0.610664
0.608027
0.605821
0.606407
0.604287
0.597278
0.619285
0.618455
0.616642
0.613981
0.610368
0.607428
0.6052
0.604196
0.603063
0.597492
0.619884
0.619299
0.61767
0.615047
0.611602
0.608022
0.605703
0.603784
0.601661
0.59814
0.620743
0.619996
0.619034
0.617018
0.613703
0.609606
0.606472
0.604608
0.60242
0.599925
0.621289
0.620931
0.620095
0.618727
0.616328
0.612617
0.608324
0.606106
0.604286
0.602246
0.621593
0.621505
0.621005
0.620033
0.618424
0.616045
0.612752
0.609152
0.607099
0.606105
0.62173
0.62177
0.621578
0.620988
0.619812
0.61833
0.616471
0.613926
0.611679
0.610087
0.621723
0.621745
0.621639
0.621457
0.620762
0.619741
0.618627
0.61724
0.616099
0.614782
0.621561
0.621618
0.621579
0.621505
0.621258
0.620587
0.619747
0.618953
0.618601
0.617998
0.621246
0.621477
0.621531
0.621473
0.621291
0.620859
0.620203
0.61968
0.619521
0.619292
0.617711
0.617371
0.615938
0.613696
0.611148
0.6084
0.606266
0.606429
0.604437
0.598938
0.618584
0.616645
0.615201
0.61312
0.610277
0.607144
0.604915
0.604447
0.603698
0.598691
0.619404
0.617907
0.615951
0.613347
0.609928
0.606209
0.604068
0.603028
0.602115
0.59826
0.619853
0.618675
0.617185
0.614537
0.610624
0.60615
0.603362
0.601893
0.600216
0.597967
0.620512
0.619641
0.618262
0.616158
0.612524
0.607586
0.603477
0.601519
0.599466
0.597997
0.620983
0.620437
0.619367
0.617726
0.614987
0.610649
0.604739
0.601768
0.59957
0.598355
0.621369
0.621128
0.620388
0.619095
0.617328
0.614329
0.608196
0.603203
0.600627
0.599627
0.621513
0.621529
0.621116
0.620279
0.618968
0.616998
0.613434
0.607436
0.604131
0.602835
0.621416
0.621529
0.621442
0.620978
0.620064
0.61874
0.61685
0.614375
0.612949
0.611687
0.621157
0.621424
0.621467
0.621313
0.620773
0.619786
0.618422
0.617613
0.61805
0.618955
0.616482
0.616324
0.61562
0.613879
0.61187
0.609212
0.606254
0.605933
0.606829
0.605567
0.617332
0.615652
0.614627
0.61307
0.610517
0.607437
0.604893
0.604615
0.605807
0.604989
0.618738
0.617235
0.615375
0.613122
0.609944
0.606037
0.603778
0.60332
0.604256
0.603751
0.619293
0.618195
0.61667
0.614037
0.610115
0.605317
0.602883
0.602205
0.602299
0.602684
0.620005
0.619156
0.617698
0.615386
0.611282
0.605411
0.602362
0.601366
0.600941
0.601327
0.620454
0.619957
0.61875
0.616663
0.612783
0.605869
0.601795
0.600456
0.599978
0.600155
0.62068
0.620642
0.61971
0.617822
0.614183
0.606504
0.601684
0.599976
0.599492
0.599656
0.620634
0.620938
0.620527
0.618987
0.615808
0.608411
0.602239
0.600178
0.59959
0.599657
0.620366
0.620893
0.62094
0.619952
0.617642
0.612411
0.604381
0.601636
0.600678
0.599667
0.620433
0.620907
0.62104
0.6206
0.619038
0.615448
0.608554
0.605966
0.607279
0.611186
0.614625
0.615352
0.6152
0.614091
0.612916
0.610339
0.606589
0.607627
0.608696
0.604227
0.616922
0.615336
0.614449
0.613097
0.611114
0.60728
0.605537
0.607395
0.608346
0.604341
0.618136
0.616827
0.615022
0.612783
0.609412
0.605758
0.604834
0.606892
0.607898
0.604569
0.618623
0.617679
0.616
0.613043
0.608363
0.604933
0.60425
0.606288
0.607474
0.604877
0.61898
0.618422
0.616581
0.613333
0.607398
0.604347
0.603746
0.605568
0.606919
0.605029
0.619103
0.618944
0.61721
0.613183
0.606529
0.603869
0.603279
0.604963
0.606416
0.605001
0.618761
0.619221
0.617714
0.612511
0.605833
0.603393
0.602825
0.60421
0.605491
0.604759
0.618343
0.618997
0.618322
0.612631
0.605675
0.603221
0.602738
0.603961
0.604775
0.604344
0.61814
0.61875
0.618702
0.613202
0.605983
0.603323
0.602741
0.603235
0.60348
0.60341
0.618524
0.61919
0.618782
0.614253
0.606752
0.603841
0.602984
0.60305
0.603576
0.605301
0.61207
0.614221
0.614324
0.613754
0.612952
0.611096
0.610328
0.609731
0.603324
0.582376
0.616054
0.614888
0.613766
0.612474
0.610557
0.609302
0.609071
0.607911
0.598126
0.58271
0.616476
0.61545
0.61296
0.610551
0.608734
0.60804
0.607875
0.605838
0.592921
0.583793
0.616624
0.615697
0.612628
0.609178
0.607508
0.607007
0.606919
0.603543
0.590351
0.585662
0.61651
0.615801
0.61217
0.608287
0.60666
0.606191
0.606099
0.601615
0.589996
0.586299
0.616017
0.615714
0.611732
0.607488
0.605901
0.605487
0.605462
0.601479
0.590354
0.587069
0.615076
0.615461
0.611464
0.606975
0.605471
0.605181
0.605247
0.601724
0.591302
0.587929
0.613434
0.615158
0.61135
0.606504
0.605017
0.604738
0.604851
0.6023
0.593473
0.589765
0.613062
0.614628
0.611313
0.606352
0.60487
0.604515
0.604599
0.602771
0.595253
0.590993
0.61356
0.614115
0.610656
0.605917
0.604497
0.60404
0.604015
0.603011
0.599378
0.594223
0.611322
0.613151
0.61299
0.612414
0.611652
0.610971
0.609492
0.602714
0.576208
0.575318
0.614252
0.613687
0.612527
0.611742
0.610793
0.609547
0.606556
0.590077
0.578613
0.588134
0.614065
0.613072
0.611639
0.610245
0.609006
0.607081
0.599766
0.586762
0.58542
0.593106
0.613603
0.612243
0.610256
0.608601
0.607402
0.603932
0.592338
0.587199
0.590075
0.593657
0.612862
0.611417
0.609026
0.607193
0.60547
0.599379
0.590088
0.588239
0.592072
0.59347
0.612302
0.61048
0.607744
0.605971
0.603652
0.596506
0.590025
0.589357
0.592492
0.593081
0.611692
0.609876
0.607194
0.605298
0.60236
0.594745
0.590211
0.590016
0.59242
0.59257
0.611052
0.609441
0.606676
0.604639
0.601538
0.594461
0.590653
0.59045
0.59225
0.592126
0.609974
0.609393
0.60651
0.604454
0.601266
0.594714
0.591054
0.590813
0.592125
0.591598
0.609784
0.609227
0.606396
0.604027
0.601089
0.595617
0.591918
0.591254
0.592193
0.591473
0.607808
0.610418
0.608725
0.608092
0.607646
0.606412
0.594064
0.568593
0.567619
0.570584
0.610419
0.610671
0.60867
0.607955
0.60694
0.600917
0.578751
0.57155
0.57959
0.588319
0.610947
0.610054
0.60826
0.60746
0.60426
0.58901
0.579233
0.579527
0.590942
0.594411
0.610387
0.608817
0.607324
0.606022
0.597617
0.583917
0.581121
0.588967
0.594122
0.595442
0.609572
0.608065
0.606636
0.603191
0.59123
0.584309
0.584815
0.592579
0.59489
0.595486
0.60876
0.607172
0.605181
0.599817
0.58865
0.585192
0.588242
0.593775
0.595006
0.595377
0.608202
0.606713
0.604373
0.597235
0.587994
0.586077
0.590137
0.594166
0.59492
0.595131
0.607771
0.606342
0.603162
0.595426
0.588108
0.586777
0.591342
0.594104
0.594614
0.594495
0.607499
0.606361
0.602964
0.595321
0.588474
0.587233
0.591313
0.593912
0.594225
0.594185
0.607388
0.60631
0.602156
0.594997
0.588951
0.587368
0.590732
0.593446
0.593953
0.593317
0.598691
0.601708
0.603783
0.604797
0.604705
0.601678
0.56882
0.550221
0.546833
0.54584
0.600383
0.603331
0.604911
0.604742
0.603307
0.592547
0.557525
0.549554
0.54957
0.556373
0.6039
0.605064
0.604903
0.604218
0.598858
0.573464
0.553537
0.551906
0.56165
0.578431
0.605826
0.605342
0.604692
0.602261
0.588984
0.561453
0.554503
0.559781
0.57871
0.586929
0.605877
0.605215
0.603901
0.597979
0.573011
0.558856
0.557337
0.572022
0.585402
0.590582
0.605585
0.604757
0.601509
0.588815
0.565706
0.559404
0.563215
0.580392
0.588666
0.592345
0.60538
0.604221
0.598806
0.58114
0.563291
0.560547
0.568223
0.583937
0.590209
0.592971
0.605262
0.603128
0.595333
0.575197
0.563473
0.562669
0.572761
0.586039
0.590823
0.59294
0.605217
0.603066
0.594485
0.573501
0.564037
0.563541
0.573777
0.585962
0.591064
0.592991
0.604904
0.602788
0.591803
0.57202
0.564896
0.564333
0.571905
0.584096
0.59085
0.592874
0.599117
0.600792
0.601263
0.601112
0.600013
0.594828
0.583601
0.582286
0.575157
0.548691
0.600076
0.601124
0.601343
0.600714
0.598334
0.591821
0.58127
0.580259
0.575192
0.552558
0.600759
0.601342
0.600914
0.599514
0.595915
0.587878
0.579491
0.579055
0.573874
0.551212
0.597335
0.599523
0.599317
0.59685
0.591629
0.582777
0.577293
0.576602
0.567783
0.547271
0.593857
0.59328
0.594372
0.590148
0.582174
0.574546
0.571692
0.569119
0.554875
0.545366
0.595023
0.589349
0.58491
0.577987
0.569929
0.564245
0.561021
0.557477
0.548761
0.545414
0.594984
0.592481
0.581775
0.567794
0.560682
0.556843
0.553323
0.550741
0.546653
0.545923
0.593354
0.592659
0.583331
0.565143
0.554505
0.550528
0.548828
0.548208
0.54612
0.547434
0.593743
0.593273
0.586645
0.566659
0.55406
0.548247
0.545362
0.546072
0.545958
0.549328
0.593526
0.593098
0.588172
0.569685
0.554852
0.54878
0.544731
0.544082
0.545066
0.559707
0.588453
0.583502
0.581653
0.577442
0.574519
0.572907
0.586481
0.587461
0.586468
0.578709
0.587286
0.586974
0.584347
0.580294
0.573755
0.566785
0.558953
0.566051
0.568968
0.568421
0.586558
0.586394
0.584855
0.581472
0.576151
0.570963
0.560345
0.552136
0.552507
0.556164
0.585202
0.585038
0.58445
0.581891
0.576894
0.570646
0.566782
0.557089
0.553117
0.555955
0.584763
0.584426
0.583774
0.581682
0.577014
0.570427
0.567007
0.564524
0.557883
0.557661
0.583301
0.583177
0.582379
0.57992
0.576297
0.572094
0.568382
0.566832
0.563137
0.553932
0.579334
0.580748
0.580459
0.578852
0.575881
0.5727
0.569672
0.568503
0.565932
0.553246
0.574649
0.576841
0.578272
0.577593
0.575841
0.573248
0.570568
0.56974
0.567731
0.554134
0.5705
0.573896
0.577713
0.57743
0.576213
0.573177
0.570279
0.569777
0.568884
0.554812
0.569459
0.573646
0.579328
0.579125
0.576604
0.569703
0.567248
0.568838
0.568267
0.557396
0.577387
0.576971
0.576753
0.575955
0.574205
0.57244
0.571469
0.571013
0.570783
0.571264
0.577345
0.577207
0.57689
0.576161
0.574424
0.572727
0.570898
0.57058
0.570699
0.571635
0.576526
0.576387
0.576011
0.575076
0.573529
0.57246
0.571359
0.570964
0.571129
0.571856
0.575477
0.575151
0.574283
0.572853
0.57234
0.571912
0.571518
0.57127
0.571357
0.571916
0.574464
0.573645
0.572219
0.572078
0.572127
0.572001
0.571814
0.57175
0.571779
0.572159
0.573227
0.571428
0.571465
0.571978
0.572745
0.573009
0.572917
0.572691
0.572518
0.572553
0.57169
0.570523
0.57127
0.573259
0.574165
0.573968
0.573504
0.573203
0.573129
0.572912
0.569466
0.570223
0.573304
0.574768
0.574623
0.574083
0.573406
0.573261
0.573218
0.573282
0.568897
0.572472
0.575141
0.575028
0.574434
0.573073
0.572907
0.572987
0.573495
0.571017
0.569655
0.575335
0.575419
0.574178
0.572249
0.571427
0.573023
0.573117
0.571274
0.556272
0.574739
0.573459
0.572555
0.572569
0.572744
0.572776
0.5728
0.572754
0.572212
0.568459
0.575113
0.573643
0.572418
0.57211
0.572183
0.57244
0.572463
0.572293
0.570933
0.569038
0.574946
0.573451
0.572073
0.571688
0.571777
0.571909
0.571749
0.570963
0.568377
0.566249
0.574496
0.572998
0.571621
0.571339
0.571497
0.571362
0.57032
0.567282
0.563394
0.562309
0.574176
0.572464
0.571003
0.570996
0.571199
0.570151
0.565607
0.56109
0.557958
0.558024
0.573624
0.571719
0.57047
0.570712
0.570678
0.566354
0.558293
0.554608
0.551869
0.554565
0.573304
0.570917
0.569657
0.570285
0.569108
0.558019
0.550503
0.547896
0.548897
0.552352
0.573147
0.5701
0.568835
0.569568
0.564748
0.551951
0.546327
0.543655
0.542771
0.544537
0.573123
0.569267
0.567756
0.568186
0.561004
0.549889
0.544918
0.541935
0.539762
0.537832
0.573336
0.568781
0.566585
0.566115
0.559381
0.550306
0.5463
0.543481
0.540869
0.538181
0.579725
0.578968
0.576849
0.575312
0.575004
0.575013
0.574767
0.575676
0.577927
0.576706
0.580189
0.579089
0.576562
0.574819
0.574486
0.574409
0.574022
0.576032
0.577903
0.577618
0.579845
0.578232
0.574972
0.573567
0.573541
0.573413
0.573229
0.575583
0.578232
0.577819
0.579343
0.577303
0.573974
0.572814
0.572758
0.572266
0.572405
0.575044
0.578489
0.578312
0.578813
0.575935
0.572298
0.571401
0.571351
0.570518
0.571899
0.575805
0.578369
0.578278
0.57793
0.57443
0.570936
0.570162
0.569699
0.568305
0.572374
0.576075
0.577576
0.577959
0.57729
0.572966
0.569117
0.568126
0.567119
0.566405
0.572327
0.575032
0.576475
0.577383
0.576959
0.571612
0.567668
0.566207
0.565311
0.565648
0.571112
0.573456
0.575046
0.576223
0.576885
0.570921
0.566295
0.564734
0.564227
0.565721
0.570316
0.572146
0.573521
0.574119
0.577421
0.570634
0.565379
0.563922
0.56345
0.564581
0.566573
0.567576
0.567867
0.565416
0.580173
0.582823
0.582697
0.582018
0.581548
0.581182
0.581176
0.581963
0.581231
0.578386
0.580809
0.582513
0.582287
0.581909
0.581223
0.580613
0.580667
0.581234
0.582332
0.579704
0.580825
0.582227
0.582082
0.58142
0.580747
0.580101
0.58014
0.580482
0.581948
0.581943
0.581082
0.581907
0.581616
0.581178
0.58029
0.579563
0.579656
0.580072
0.58138
0.581974
0.581172
0.581651
0.581244
0.580685
0.579646
0.579179
0.57934
0.579809
0.581189
0.581727
0.581192
0.581259
0.580752
0.580319
0.579339
0.579023
0.579204
0.579709
0.581173
0.578368
0.580889
0.580873
0.580338
0.57992
0.579013
0.578945
0.579129
0.579699
0.580397
0.571569
0.580636
0.580505
0.580085
0.579721
0.578905
0.578663
0.578845
0.57948
0.58052
0.572739
0.5804
0.580211
0.57999
0.579568
0.578646
0.578241
0.57847
0.579023
0.580325
0.577373
0.580028
0.580084
0.579968
0.579375
0.578066
0.577239
0.577716
0.578325
0.579684
0.579072
0.577617
0.583384
0.584481
0.584547
0.584136
0.582701
0.581893
0.581952
0.582241
0.581392
0.579647
0.582747
0.583852
0.584343
0.584475
0.584009
0.581792
0.581104
0.581337
0.580911
0.579823
0.581903
0.58294
0.583738
0.58428
0.584537
0.584194
0.580971
0.580547
0.580218
0.579712
0.581091
0.582229
0.582954
0.583406
0.584061
0.584973
0.584284
0.580319
0.580285
0.579778
0.580686
0.581596
0.582257
0.582782
0.583458
0.583986
0.58512
0.581292
0.580429
0.580006
0.580407
0.580948
0.581315
0.581659
0.582417
0.583291
0.584757
0.583498
0.580412
0.579742
0.579743
0.580024
0.580156
0.580423
0.580961
0.581982
0.584171
0.58424
0.580263
0.578092
0.578454
0.578729
0.578666
0.578729
0.579142
0.580237
0.582918
0.584162
0.580893
0.576211
0.577308
0.577275
0.576965
0.577017
0.577346
0.578118
0.580266
0.583427
0.582968
0.576043
0.576267
0.575921
0.576043
0.576394
0.577031
0.577377
0.577988
0.579844
0.579623
0.577301
0.577497
0.577474
0.577554
0.577252
0.576359
0.575287
0.573191
0.569129
0.564725
0.577345
0.577342
0.577161
0.576453
0.574932
0.571942
0.568754
0.56596
0.564134
0.563083
0.577194
0.576901
0.575685
0.572781
0.569621
0.567575
0.566501
0.565978
0.565847
0.568799
0.576352
0.575362
0.572422
0.569891
0.568256
0.567426
0.567083
0.568003
0.572003
0.575043
0.575512
0.574265
0.571125
0.569378
0.568425
0.568065
0.568983
0.571775
0.574537
0.575638
0.575908
0.574395
0.571237
0.569777
0.569336
0.569515
0.570853
0.573405
0.57513
0.575817
0.577719
0.574949
0.572171
0.57065
0.570418
0.570614
0.57146
0.573387
0.575091
0.57586
0.581505
0.577533
0.574638
0.572161
0.571326
0.571337
0.571711
0.572828
0.574848
0.57571
0.582321
0.581564
0.579253
0.57614
0.573445
0.572599
0.572357
0.572706
0.574015
0.575847
0.581792
0.583139
0.582502
0.580815
0.578944
0.576938
0.576385
0.574389
0.574046
0.575509
0.571791
0.571353
0.570199
0.567124
0.559237
0.548908
0.54188
0.530407
0.522511
0.509419
0.571608
0.571142
0.570329
0.568158
0.561439
0.549258
0.53847
0.51301
0.495773
0.492293
0.571288
0.571057
0.57045
0.568882
0.56342
0.549005
0.532178
0.510819
0.508296
0.524703
0.571018
0.570946
0.570401
0.569145
0.564687
0.549142
0.533068
0.51295
0.522384
0.537761
0.570135
0.570707
0.570295
0.569216
0.565407
0.549686
0.537593
0.52147
0.535391
0.550475
0.566723
0.570033
0.569946
0.569199
0.565979
0.551037
0.542019
0.535133
0.542272
0.553559
0.566288
0.568857
0.569504
0.569026
0.565975
0.553049
0.543594
0.543768
0.545796
0.553375
0.564539
0.567732
0.568581
0.567958
0.564927
0.554093
0.544488
0.545108
0.547341
0.551303
0.5384
0.544114
0.545663
0.555447
0.558271
0.553017
0.54515
0.542609
0.543867
0.546006
0.505436
0.529163
0.541248
0.548642
0.54491
0.544022
0.542046
0.54135
0.542242
0.543613
0.279257
0.276683
0.252413
0.226175
0.210918
0.203695
0.20459
0.208489
0.211757
0.208665
0.280554
0.288762
0.281862
0.262353
0.240115
0.214658
0.19497
0.195569
0.182056
0.174776
0.273686
0.288935
0.289473
0.282939
0.265965
0.231107
0.189011
0.182619
0.174446
0.171403
0.234518
0.275144
0.283396
0.28093
0.265241
0.237595
0.192617
0.182961
0.174418
0.17076
0.203875
0.221407
0.252216
0.26732
0.261946
0.246604
0.21542
0.186695
0.175058
0.175469
0.196699
0.196922
0.209951
0.229939
0.251325
0.244824
0.234798
0.204177
0.179911
0.177995
0.195667
0.193071
0.201362
0.215181
0.215727
0.216081
0.214796
0.206727
0.186212
0.181873
0.192686
0.187705
0.175085
0.167696
0.165826
0.167118
0.180456
0.198193
0.18646
0.182334
0.178285
0.169757
0.161197
0.158793
0.163437
0.165596
0.181597
0.196897
0.21204
0.2008
0.15681
0.152157
0.149103
0.150193
0.160423
0.170719
0.17668
0.234543
0.292485
0.19598
0.0589978
0.0577665
0.0528565
0.050805
0.0505496
0.0527773
0.059495
0.0624175
0.0644476
0.0663622
0.0592942
0.0566881
0.0534176
0.0507889
0.049611
0.0494275
0.0545983
0.0594565
0.0629579
0.0630306
0.0584321
0.0577299
0.0560385
0.0550766
0.0511801
0.0458231
0.0448157
0.047331
0.0508479
0.0518775
0.0580823
0.0579517
0.0574186
0.0564825
0.0556621
0.0544395
0.0428306
0.0404851
0.0418058
0.0425774
0.0596519
0.0589198
0.058378
0.0574612
0.056484
0.0560638
0.052945
0.0446563
0.040895
0.0406119
0.0647346
0.0631916
0.0613904
0.0599978
0.0583434
0.0572592
0.0563366
0.0543376
0.0494422
0.0504881
0.0724955
0.0701218
0.0676933
0.0653202
0.062721
0.0598886
0.0580258
0.0571265
0.0569101
0.0573938
0.0668308
0.0691514
0.0687547
0.0677782
0.0664516
0.064147
0.061644
0.0611988
0.0601146
0.0586054
0.0638098
0.0684522
0.0686974
0.068156
0.0671
0.0646705
0.0624614
0.0600044
0.049189
0.049865
0.0595262
0.0673129
0.0680706
0.0675588
0.066345
0.0639626
0.061273
0.0525362
0.0477097
0.0471628
0.0530308
0.0554787
0.0601404
0.061252
0.0614487
0.0593952
0.0439017
0.0216529
0.0108497
0.0109713
0.0513704
0.0511134
0.0544612
0.0549943
0.0527183
0.0382886
0.0219471
0.0114408
0.00716874
0.0119774
0.0514294
0.0431072
0.0390666
0.0352684
0.0286609
0.0220289
0.01665
0.00930715
0.00628262
0.0133196
0.0493928
0.0497038
0.0439299
0.0374023
0.0321224
0.0269664
0.0196956
0.0105785
0.00616075
0.00856438
0.0425132
0.0415332
0.0438823
0.044279
0.0439519
0.0439591
0.0384125
0.022411
0.0093754
0.00641682
0.0577048
0.0570164
0.0535439
0.0504047
0.0502584
0.0514612
0.0508994
0.044626
0.0250251
0.00924761
0.0495314
0.0535161
0.0549191
0.0547083
0.0549019
0.0560753
0.0560825
0.0528141
0.036571
0.0151418
0.0347329
0.0381899
0.0479474
0.052665
0.0549079
0.0565483
0.0561986
0.0528233
0.0331996
0.0117459
0.0383031
0.0389125
0.0459543
0.0514832
0.0549848
0.0562012
0.0551674
0.045237
0.0139253
0.00686033
0.0385715
0.0471636
0.0474657
0.0525407
0.055027
0.0549453
0.0423039
0.0117872
0.00813697
0.00903829
0.00855947
0.0108074
0.0132603
0.0063114
0.00726475
0.0101322
0.0107885
0.00932819
0.00468525
0.00279145
0.00902833
0.00789032
0.00406185
0.00265963
0.00427899
0.00832653
0.00946157
0.0076145
0.00249201
0.000963092
0.00509524
0.00243317
0.00092259
0.00068174
0.000980683
0.00238162
0.0037176
0.00387605
0.00192194
0.000658784
0.00122577
0.000588122
0.000242862
0.000164608
0.000157897
0.000216647
0.000383411
0.000549773
0.000595703
0.000606989
0.000947249
0.00031055
0.000133646
8.46e-05
7.25263e-05
7.03588e-05
7.83788e-05
0.000109699
0.000187529
0.000308714
0.00259473
0.000392451
0.000107645
6.52502e-05
5.36913e-05
4.74252e-05
3.95759e-05
3.58024e-05
4.24958e-05
8.75054e-05
0.0133178
0.000925953
0.000113803
6.16792e-05
5.51246e-05
5.13454e-05
4.08351e-05
2.81363e-05
2.72719e-05
4.14505e-05
0.0103523
0.000815264
0.000115363
6.33107e-05
5.83189e-05
5.65913e-05
5.01653e-05
4.67739e-05
5.51712e-05
6.98513e-05
0.00522668
0.000646138
0.000127778
6.92091e-05
6.57449e-05
7.19455e-05
7.07249e-05
7.2365e-05
0.000116345
0.000195669
0.00257171
0.000455567
0.000142654
8.33365e-05
7.94478e-05
8.55981e-05
0.000105279
0.00012734
0.000199156
0.00024691
0.640442
0.622667
0.615899
0.614665
0.615627
0.61798
0.622635
0.628381
0.635033
0.637716
0.652214
0.634987
0.621116
0.615402
0.613701
0.614096
0.615769
0.620697
0.631708
0.637603
0.656835
0.646104
0.634121
0.622283
0.616051
0.614169
0.61438
0.61581
0.621184
0.633227
0.657572
0.651904
0.641742
0.632919
0.623459
0.616947
0.614848
0.615059
0.616572
0.621788
0.657672
0.65197
0.645928
0.637236
0.630463
0.623377
0.6176
0.615528
0.615821
0.617752
0.656693
0.649862
0.643976
0.637018
0.63
0.625152
0.62044
0.616804
0.615834
0.616504
0.654454
0.646006
0.637225
0.630495
0.625314
0.622668
0.619888
0.617163
0.615539
0.615836
0.653381
0.640427
0.630279
0.623317
0.619282
0.617486
0.617147
0.616568
0.615367
0.615177
0.652842
0.637547
0.629059
0.624111
0.620262
0.617961
0.616976
0.616407
0.615468
0.615171
0.654645
0.637902
0.630228
0.627017
0.624808
0.62229
0.619916
0.618084
0.617288
0.616109
0.653044
0.634941
0.624261
0.61903
0.617668
0.618406
0.620547
0.623542
0.628952
0.634798
0.661029
0.647378
0.630537
0.620767
0.616307
0.614892
0.615278
0.616788
0.621548
0.631957
0.664256
0.65682
0.644518
0.631211
0.62112
0.616264
0.614878
0.615054
0.616461
0.620795
0.664827
0.661422
0.654115
0.643201
0.633058
0.623095
0.617223
0.615502
0.615686
0.616845
0.664949
0.661353
0.657786
0.650506
0.640742
0.633275
0.624861
0.618329
0.61636
0.616594
0.664469
0.66012
0.656251
0.650849
0.643306
0.635247
0.629567
0.623352
0.618369
0.617071
0.662902
0.65748
0.651196
0.645026
0.63927
0.633139
0.628365
0.624389
0.620291
0.617411
0.661699
0.653739
0.643612
0.634769
0.628523
0.624994
0.622762
0.621895
0.620062
0.618021
0.661345
0.652615
0.639948
0.630905
0.625223
0.621685
0.62001
0.619411
0.618857
0.617651
0.663086
0.654496
0.639631
0.631284
0.627176
0.624636
0.622439
0.620476
0.619688
0.617978
0.659383
0.643942
0.63322
0.626613
0.622193
0.620182
0.620752
0.622012
0.624509
0.62967
0.664681
0.653074
0.637438
0.626846
0.620004
0.616516
0.615712
0.616096
0.617633
0.62201
0.667419
0.662053
0.650035
0.635834
0.624877
0.618542
0.615868
0.615214
0.615467
0.61649
0.668491
0.666105
0.66123
0.650121
0.638382
0.628891
0.620758
0.616758
0.615838
0.616069
0.668693
0.666485
0.664229
0.659685
0.649812
0.639657
0.632311
0.624164
0.618366
0.616925
0.668244
0.665229
0.662772
0.659639
0.653041
0.643688
0.635575
0.630183
0.62409
0.619158
0.666928
0.662927
0.658671
0.654155
0.648552
0.64118
0.634132
0.629222
0.625585
0.621824
0.665483
0.660314
0.65304
0.644579
0.636973
0.630938
0.626561
0.623786
0.622712
0.621027
0.664699
0.659723
0.651481
0.640899
0.632237
0.626482
0.623098
0.621423
0.620966
0.620108
0.666401
0.662154
0.653536
0.640553
0.631688
0.627166
0.625094
0.623531
0.62311
0.622144
0.662075
0.650866
0.641808
0.634241
0.62839
0.623375
0.621526
0.621579
0.622373
0.626039
0.66609
0.654696
0.642988
0.632742
0.624449
0.619124
0.616611
0.616224
0.616562
0.617479
0.66849
0.662691
0.650067
0.637719
0.627951
0.621222
0.617287
0.615719
0.615512
0.615706
0.669882
0.66729
0.6616
0.650147
0.639573
0.631434
0.624361
0.619046
0.616639
0.616219
0.670427
0.668926
0.666551
0.661331
0.651457
0.641672
0.63517
0.629169
0.622506
0.618447
0.670276
0.668416
0.666788
0.664177
0.658281
0.648593
0.639487
0.633343
0.628965
0.623737
0.669252
0.666283
0.663321
0.659251
0.653903
0.646264
0.638135
0.631555
0.628109
0.625085
0.667479
0.663337
0.658975
0.651964
0.644041
0.636759
0.630483
0.625973
0.623902
0.622506
0.666394
0.662854
0.658566
0.650355
0.640734
0.632626
0.627564
0.624194
0.622996
0.622295
0.667094
0.665351
0.661442
0.65248
0.640724
0.632053
0.628005
0.626192
0.625896
0.625531
0.664613
0.655707
0.648242
0.642755
0.634247
0.626447
0.622371
0.62106
0.621137
0.622561
0.666598
0.656808
0.646777
0.638284
0.629133
0.621929
0.618037
0.616528
0.616416
0.61636
0.668352
0.661421
0.649715
0.639835
0.630959
0.623715
0.619251
0.616813
0.615835
0.615794
0.669822
0.666825
0.659907
0.648661
0.638954
0.632547
0.628266
0.623441
0.619089
0.617101
0.670613
0.669035
0.666281
0.660355
0.650586
0.641399
0.635451
0.63173
0.627175
0.622343
0.670901
0.669556
0.667902
0.664826
0.65829
0.648732
0.639953
0.633855
0.630484
0.626944
0.670644
0.668597
0.66572
0.662583
0.65715
0.64884
0.640109
0.632954
0.628893
0.626374
0.669145
0.665081
0.661886
0.657485
0.650493
0.642919
0.635844
0.629732
0.626341
0.624802
0.667338
0.664513
0.661886
0.657194
0.648972
0.639836
0.632364
0.627607
0.625505
0.62469
0.667285
0.666621
0.664852
0.660365
0.650641
0.64019
0.632138
0.628372
0.627185
0.626922
0.666609
0.659857
0.654023
0.650263
0.641939
0.630084
0.623501
0.621095
0.620057
0.620257
0.667025
0.658524
0.649353
0.642084
0.634316
0.625763
0.620275
0.617416
0.616497
0.616238
0.667833
0.659923
0.650038
0.641828
0.634395
0.626974
0.621653
0.618324
0.61665
0.616152
0.669302
0.664958
0.655251
0.645395
0.638342
0.634692
0.631073
0.625941
0.621158
0.618913
0.670379
0.66844
0.664585
0.656894
0.647647
0.640264
0.636048
0.633969
0.630518
0.625993
0.670842
0.669514
0.667625
0.664107
0.657169
0.647867
0.639505
0.634043
0.63145
0.629438
0.670929
0.669263
0.666488
0.66394
0.660135
0.652465
0.642763
0.634825
0.630078
0.627675
0.67016
0.666607
0.663609
0.660741
0.656084
0.649058
0.640672
0.633401
0.629206
0.627056
0.668073
0.665499
0.664018
0.661321
0.655474
0.647096
0.638607
0.632315
0.628959
0.627321
0.667516
0.667152
0.66615
0.663518
0.657075
0.647462
0.638466
0.632452
0.629777
0.628306
0.6684
0.663724
0.659992
0.656825
0.650043
0.635236
0.625602
0.621531
0.619785
0.619305
0.667432
0.660141
0.652814
0.646431
0.639587
0.630439
0.622877
0.618714
0.616936
0.61645
0.667092
0.659454
0.650544
0.643223
0.637682
0.631038
0.624312
0.61992
0.617533
0.616833
0.667873
0.661302
0.651944
0.644377
0.639143
0.636159
0.631779
0.626253
0.621866
0.62016
0.669509
0.666094
0.658468
0.650073
0.643944
0.639807
0.637612
0.635001
0.631502
0.627732
0.67043
0.668774
0.665986
0.661394
0.653757
0.645366
0.639011
0.634949
0.633679
0.631596
0.670819
0.669099
0.666323
0.663882
0.66067
0.6545
0.646063
0.637636
0.632295
0.629886
0.670329
0.667751
0.66543
0.663133
0.660016
0.65381
0.64575
0.637692
0.63178
0.628802
0.66894
0.666576
0.665434
0.663677
0.659799
0.65234
0.643478
0.636308
0.631422
0.628795
0.668115
0.667684
0.666859
0.664978
0.660879
0.653244
0.64452
0.637587
0.633438
0.629881
0.669563
0.666931
0.664758
0.66188
0.656882
0.644587
0.630344
0.62309
0.620179
0.619279
0.66832
0.662925
0.65715
0.651401
0.645116
0.636362
0.626818
0.620865
0.618045
0.617102
0.666904
0.659669
0.651589
0.64581
0.64069
0.634387
0.627217
0.621407
0.618335
0.617514
0.666364
0.658538
0.650529
0.644708
0.640762
0.636543
0.631486
0.625746
0.621739
0.620823
0.667253
0.660297
0.6525
0.64663
0.642664
0.639998
0.637733
0.634781
0.63132
0.628393
0.669015
0.665452
0.659898
0.654038
0.648446
0.643386
0.639531
0.637159
0.635437
0.633149
0.670236
0.668108
0.665235
0.662992
0.659986
0.654087
0.646778
0.640241
0.634806
0.632505
0.670113
0.66774
0.666294
0.664992
0.662883
0.658554
0.65088
0.642362
0.635173
0.631161
0.669335
0.667804
0.666556
0.664955
0.66199
0.655798
0.648068
0.640129
0.634391
0.630732
0.668888
0.668348
0.667364
0.665587
0.662198
0.655811
0.648118
0.640717
0.635723
0.631205
0.670215
0.668851
0.667572
0.665714
0.662371
0.653875
0.637212
0.627134
0.621859
0.62015
0.669249
0.666106
0.661703
0.65666
0.650731
0.642576
0.633819
0.62592
0.620705
0.618819
0.66723
0.660616
0.654387
0.649076
0.642828
0.636094
0.629169
0.623471
0.619589
0.618463
0.6647
0.657145
0.650547
0.645769
0.641547
0.636626
0.630604
0.624874
0.621659
0.621283
0.663924
0.656504
0.650123
0.64594
0.642339