/*--------------------------------*- C++ -*----------------------------------*\
  =========                 |
  \\      /  F ield         | OpenFOAM: The Open Source CFD Toolbox
   \\    /   O peration     | Website:  https://openfoam.org
    \\  /    A nd           | Version:  9
     \\/     M anipulation  |
\*---------------------------------------------------------------------------*/
FoamFile
{
    format      ascii;
    class       volScalarField;
    location    "79";
    object      d.gas;
}
// * * * * * * * * * * * * * * * * * * * * * * * * * * * * * * * * * * * * * //

dimensions      [0 1 0 0 0 0 0];

internalField   nonuniform List<scalar> 
137980
(
0.0099273
0.00988978
0.0098008
0.00967462
0.0095476
0.00947719
0.00946028
0.0094556
0.00943417
0.00941155
0.00996435
0.00993067
0.00985695
0.00973885
0.00958283
0.00947187
0.00944665
0.00944509
0.00943563
0.00941624
0.00997722
0.00995509
0.00990599
0.00981783
0.00969289
0.00952709
0.00944001
0.00943074
0.00944676
0.00947194
0.0100078
0.00999366
0.00996151
0.0098961
0.00980241
0.0096886
0.00955375
0.00947152
0.00946391
0.00951443
0.0100362
0.0100279
0.010007
0.00996512
0.00990019
0.00981848
0.00972844
0.00963935
0.00958642
0.00959585
0.0100615
0.010059
0.0100471
0.0100217
0.00997983
0.00992352
0.00986194
0.00980184
0.00975988
0.00974835
0.0100758
0.010079
0.010075
0.0100605
0.0100374
0.0100004
0.00995625
0.00991262
0.00988033
0.00986118
0.01008
0.0100875
0.0100876
0.0100818
0.0100669
0.0100469
0.0100174
0.00998428
0.00995991
0.00994043
0.0100752
0.0100866
0.01009
0.0100886
0.0100806
0.0100632
0.0100417
0.0100205
0.0100059
0.0099899
0.0100547
0.010073
0.0100791
0.0100804
0.0100783
0.0100686
0.010047
0.0100275
0.0100142
0.00999653
0.00997152
0.00991626
0.00982491
0.00970518
0.00957572
0.00949481
0.00946532
0.00944644
0.00940051
0.00934712
0.00999852
0.00995132
0.00987493
0.00974728
0.00958162
0.00947918
0.00945007
0.00943945
0.00940699
0.00936377
0.0100134
0.00997501
0.00991283
0.0098139
0.00966873
0.00949674
0.00943494
0.00942471
0.00941922
0.0093955
0.0100408
0.0100158
0.00997153
0.00989203
0.00978072
0.00963331
0.00948427
0.00943831
0.00943281
0.00946332
0.0100668
0.0100515
0.0100207
0.00996442
0.00988458
0.00978121
0.00965406
0.00953433
0.00949762
0.00951688
0.0100882
0.0100811
0.0100646
0.0100278
0.00997212
0.00990174
0.00981862
0.00973181
0.00967105
0.00965797
0.0101005
0.0101012
0.0100931
0.0100759
0.010039
0.00999117
0.00993576
0.00987794
0.00983219
0.00980576
0.0101021
0.0101107
0.0101078
0.0101
0.0100842
0.0100518
0.0100142
0.00997528
0.00994367
0.00991745
0.0100938
0.0101089
0.0101118
0.0101068
0.0101004
0.0100863
0.010061
0.0100346
0.0100149
0.00999261
0.0100717
0.0100936
0.0101036
0.0101032
0.0100975
0.0100885
0.0100754
0.0100592
0.0100457
0.0100227
0.0099958
0.00993473
0.00984447
0.00972548
0.00958959
0.00949286
0.00944169
0.00940532
0.00932284
0.00912606
0.0100001
0.0099532
0.00987531
0.00974058
0.00957412
0.00946451
0.00941225
0.00933087
0.00922914
0.00909928
0.0100329
0.00998209
0.0099052
0.00978935
0.00962059
0.00945869
0.00939326
0.00933425
0.0092175
0.00910912
0.0100574
0.0100245
0.00996398
0.0098643
0.00971951
0.00953561
0.00940461
0.00934666
0.00926618
0.00921007
0.0100863
0.0100638
0.0100162
0.0099416
0.00983192
0.00968109
0.00950101
0.00939351
0.00934361
0.00933208
0.0101061
0.0100984
0.0100672
0.0100137
0.00993474
0.00982648
0.00969077
0.00954866
0.00947731
0.00945429
0.0101183
0.0101204
0.0101069
0.010071
0.0100184
0.00994476
0.00985363
0.00975344
0.00967521
0.00963083
0.0101247
0.0101316
0.0101296
0.0101109
0.0100767
0.0100302
0.00997188
0.00990934
0.00985634
0.00981119
0.0101264
0.0101345
0.0101363
0.0101321
0.0101114
0.0100809
0.0100449
0.0100077
0.00997991
0.00995085
0.0101136
0.0101287
0.0101314
0.0101298
0.0101244
0.0101071
0.0100803
0.0100545
0.010037
0.0100158
0.00998969
0.00993654
0.00986323
0.00975655
0.00962543
0.00951141
0.00944886
0.00946043
0.00934437
0.00924853
0.00998646
0.00994743
0.00987352
0.00974633
0.00958293
0.00944112
0.00936816
0.00932943
0.0092504
0.00912938
0.010033
0.00997624
0.00988685
0.00975486
0.00957877
0.00939927
0.00930011
0.00921772
0.00911245
0.0090351
0.0100537
0.0100162
0.00993683
0.00980728
0.00962295
0.00940555
0.0092473
0.0091558
0.00903059
0.0089724
0.01009
0.0100581
0.00999072
0.00988087
0.00971263
0.00948698
0.00926435
0.00914233
0.00902855
0.00895692
0.0101204
0.0100995
0.0100492
0.00996462
0.00982989
0.00963253
0.00938063
0.00918717
0.00906157
0.00898274
0.0101408
0.010132
0.0100987
0.0100376
0.00994115
0.00979884
0.00960187
0.00936634
0.00919016
0.00908807
0.0101542
0.0101545
0.0101349
0.0100944
0.0100281
0.00993119
0.00980618
0.00965886
0.00951272
0.00938496
0.0101581
0.0101636
0.0101568
0.0101307
0.0100875
0.0100225
0.00994286
0.00986351
0.00980414
0.00973389
0.0101392
0.010159
0.0101601
0.0101479
0.0101201
0.010078
0.0100191
0.0099695
0.0099435
0.00994828
0.00997809
0.00992771
0.00987585
0.00979747
0.00969652
0.00956492
0.00948009
0.00943107
0.00927076
0.00932693
0.00998749
0.00994688
0.0098786
0.00976443
0.00961262
0.00946737
0.00937583
0.00931673
0.00918484
0.00919213
0.0100425
0.00997373
0.00987385
0.00973529
0.00955056
0.009369
0.00927241
0.00918534
0.0090647
0.00904017
0.0100616
0.0100069
0.00989906
0.00973736
0.0095232
0.00930346
0.00916663
0.00907959
0.00894755
0.00889797
0.0101021
0.0100428
0.00994139
0.00978111
0.00954996
0.00928741
0.00908655
0.0089749
0.00887499
0.00883416
0.0101325
0.0100907
0.0100037
0.00985526
0.00963194
0.00934727
0.00908335
0.00890895
0.00880151
0.00875877
0.0101526
0.010131
0.0100669
0.00994663
0.00974738
0.0094723
0.00916285
0.00891788
0.00875639
0.00864685
0.0101622
0.0101592
0.0101167
0.0100288
0.00987531
0.00964494
0.00934616
0.00904082
0.00882341
0.00868874
0.010156
0.0101683
0.0101514
0.0100899
0.00997827
0.00981319
0.00960014
0.00936056
0.00915718
0.00903626
0.0101293
0.0101572
0.0101603
0.0101306
0.0100552
0.00992017
0.00974873
0.00961833
0.00963484
0.00971523
0.00994921
0.00990394
0.00988209
0.00984194
0.00976942
0.00964167
0.00945229
0.00929895
0.00935738
0.00932631
0.00999422
0.00994897
0.0098843
0.0097849
0.00964185
0.00946181
0.00932539
0.00919311
0.00914876
0.00916864
0.0100559
0.00997145
0.00986378
0.00971923
0.00952619
0.00932384
0.0091821
0.00905855
0.0089631
0.00899095
0.0100753
0.00999778
0.00987178
0.00969462
0.00945985
0.00921203
0.00903147
0.00888869
0.00876833
0.00878997
0.0101003
0.0100229
0.00989721
0.00970343
0.00943511
0.00913601
0.00890273
0.00875098
0.00862749
0.0086381
0.0101195
0.0100639
0.00994164
0.00973718
0.00944374
0.00909576
0.00878245
0.00859098
0.00848122
0.00850503
0.010127
0.0101033
0.00999534
0.00979189
0.0094822
0.00908687
0.00869457
0.00850516
0.00840163
0.00841878
0.0101018
0.0101242
0.0100525
0.00986392
0.00955888
0.00913343
0.00865676
0.00834091
0.00820927
0.008177
0.0100478
0.0101043
0.0100957
0.00994953
0.00967522
0.00927405
0.00875754
0.00837244
0.00816842
0.00794241
0.010022
0.0100851
0.0101045
0.0100223
0.00980126
0.00943126
0.00899051
0.00862245
0.00858856
0.00872161
0.00989875
0.00989318
0.00988357
0.00985043
0.00977972
0.00959383
0.00909673
0.00914186
0.00936233
0.00870855
0.00999365
0.00993595
0.00986405
0.00975255
0.00957928
0.00923042
0.00887604
0.00898276
0.0092121
0.00868086
0.010038
0.00993639
0.00980586
0.00962531
0.00935509
0.0089203
0.00871041
0.00881041
0.00904505
0.00864345
0.0100492
0.00994046
0.00976752
0.00951903
0.00914567
0.00870505
0.00854833
0.00862983
0.00885313
0.00858704
0.010051
0.00993903
0.00973919
0.00942852
0.0089419
0.00852693
0.00839264
0.00845741
0.00865564
0.00850857
0.0100406
0.00995044
0.00972453
0.00933879
0.00874167
0.00836965
0.00824359
0.00828796
0.0084395
0.00839839
0.0100077
0.00996365
0.00972242
0.00924306
0.00854072
0.00820438
0.00808682
0.00812073
0.00822822
0.00825797
0.00992233
0.00996864
0.00974512
0.00918208
0.00839557
0.00803922
0.00790385
0.00791428
0.0080187
0.00808513
0.00985058
0.00991193
0.00977353
0.00917527
0.00829671
0.00792783
0.00777399
0.00773959
0.00780246
0.00782617
0.0098053
0.00987928
0.00976828
0.00922245
0.00829901
0.0078033
0.00746913
0.0073169
0.00727199
0.00733934
0.00984823
0.00986733
0.00985063
0.00979334
0.00970112
0.00928094
0.0093128
0.00937339
0.00850768
0.00593172
0.00994332
0.00985266
0.00970025
0.00944289
0.00917175
0.00903117
0.00908982
0.00903501
0.00764701
0.005857
0.00991571
0.00972062
0.00937449
0.00903523
0.00887634
0.00883318
0.00886472
0.00861487
0.00693366
0.00590854
0.00987972
0.00959776
0.009107
0.00878445
0.00866163
0.00863898
0.00862292
0.00820405
0.00658919
0.00607765
0.00982502
0.00949253
0.00891907
0.00859557
0.00848435
0.00845599
0.0084156
0.00790333
0.00649518
0.00611264
0.00976193
0.00942557
0.00879385
0.00844369
0.00832242
0.00827633
0.00822768
0.00778357
0.00651178
0.00616313
0.00970028
0.00939841
0.00869122
0.00830257
0.00817305
0.00812396
0.00810443
0.00777082
0.00659654
0.00624065
0.00962916
0.00942225
0.00866454
0.00819675
0.00803721
0.00797095
0.00795741
0.0077523
0.00675904
0.00641567
0.00953246
0.00940844
0.00865319
0.0081007
0.00790764
0.0078373
0.00783711
0.00771555
0.00697241
0.00652343
0.00928653
0.00930856
0.00857641
0.00801534
0.00781529
0.00771627
0.0076787
0.00763395
0.00723768
0.00676777
0.00979292
0.00978713
0.00975496
0.00973383
0.00963852
0.00943004
0.00931749
0.00836396
0.00545875
0.00528678
0.00977173
0.00962232
0.00952822
0.00946277
0.0092871
0.0091425
0.00875471
0.00669633
0.00561343
0.00644207
0.00952346
0.0092864
0.00916417
0.00908787
0.00894626
0.008698
0.00767017
0.00627119
0.00617197
0.00778781
0.00933486
0.00901689
0.00888701
0.00881073
0.00863036
0.00809693
0.00676717
0.00634986
0.0070958
0.00846906
0.00912604
0.00879614
0.00864866
0.00853534
0.00824912
0.00745383
0.00661668
0.00654692
0.0078447
0.00877815
0.00897638
0.00861608
0.00845504
0.00829561
0.00790603
0.00708326
0.0066316
0.00682104
0.00819628
0.00883656
0.00886564
0.00849962
0.00832027
0.00809801
0.00767369
0.00693008
0.00667176
0.00700258
0.00827957
0.00879703
0.00879194
0.00839933
0.00817476
0.00793543
0.00751052
0.00688751
0.00672586
0.00709469
0.00824217
0.00867874
0.00877302
0.00838175
0.00811755
0.00784041
0.00742828
0.00688874
0.00674441
0.00707643
0.00815411
0.00855687
0.00871337
0.00832988
0.00801451
0.00772977
0.00737845
0.00691272
0.00677107
0.006977
0.00791357
0.00832194
0.00958789
0.00958432
0.00961347
0.00957715
0.0093711
0.00896588
0.00733682
0.00558588
0.00567855
0.0059027
0.0095513
0.00947298
0.00945379
0.00931177
0.00893103
0.00795987
0.00604884
0.00567321
0.00611437
0.00662605
0.0093731
0.00924662
0.00918052
0.00894111
0.00823555
0.00654749
0.00597917
0.00603796
0.0071843
0.00774381
0.00909579
0.00897335
0.00883557
0.0083989
0.00721495
0.0062114
0.00610492
0.00691424
0.00798292
0.00846525
0.00889001
0.00875396
0.00850382
0.00781682
0.00659457
0.00623264
0.00641174
0.00771167
0.00845999
0.00881436
0.00864788
0.00847921
0.00811712
0.00728972
0.00643234
0.00631188
0.00694851
0.00819197
0.00873328
0.00899141
0.00852268
0.00832149
0.00787987
0.00698962
0.00642723
0.00642383
0.00730526
0.00844255
0.00887769
0.00906348
0.00837272
0.0081238
0.00763997
0.00680713
0.00644032
0.00655623
0.00762771
0.00858657
0.0089467
0.0090868
0.00830935
0.00807416
0.00759069
0.00678457
0.00647012
0.00659116
0.00763038
0.00858242
0.00895982
0.00908274
0.0082476
0.00796693
0.00747094
0.00674525
0.00648364
0.00656256
0.00746071
0.00849753
0.00894047
0.00905164
0.00940888
0.00941875
0.0094479
0.00935099
0.00907673
0.00855
0.00670384
0.00634163
0.00653432
0.0064146
0.0094188
0.00937046
0.00934315
0.0091449
0.00868765
0.00772215
0.00631641
0.00618878
0.00627515
0.00622986
0.0093317
0.00924157
0.00914882
0.0088433
0.0081338
0.00667246
0.00617953
0.00619294
0.00631677
0.00636784
0.0090974
0.00900765
0.00887049
0.00841121
0.00724962
0.00628286
0.00613824
0.00625674
0.00650539
0.006958
0.00887308
0.00880729
0.00854767
0.00778195
0.00656012
0.00617214
0.00615856
0.00641173
0.00694222
0.00759671
0.00859182
0.0084808
0.00807464
0.00715782
0.00629611
0.00614606
0.00625305
0.00674743
0.00742611
0.00805444
0.00842621
0.00830272
0.00776884
0.00666711
0.00619502
0.00615034
0.00635311
0.00700961
0.00772391
0.00825622
0.00828592
0.00803578
0.00736936
0.00642024
0.00616154
0.00616667
0.0065285
0.00722983
0.00790685
0.00843376
0.00818957
0.00796673
0.00723569
0.00632975
0.00613172
0.00616024
0.00654733
0.00727761
0.00802441
0.00847436
0.00812367
0.00780442
0.00703479
0.00624135
0.00610923
0.00614038
0.00644522
0.00717137
0.0080274
0.00858768
0.0091605
0.00913262
0.00908612
0.00891278
0.00874313
0.00821411
0.00756708
0.00775411
0.00772011
0.00762085
0.00908135
0.00902515
0.00892561
0.00869207
0.00843941
0.00791257
0.00746545
0.00760591
0.00762722
0.00757576
0.00881792
0.00881534
0.00867285
0.00839976
0.00804096
0.00753419
0.00733059
0.00752657
0.00756536
0.00748767
0.00837415
0.00843779
0.00829874
0.00798334
0.00751068
0.00729138
0.00725746
0.00748857
0.00748913
0.00736773
0.00784121
0.00798219
0.00782972
0.00746269
0.00718406
0.00711968
0.00725539
0.00743972
0.00741166
0.00724547
0.00746575
0.00753645
0.00736601
0.00710612
0.00695883
0.00704061
0.00722902
0.00733493
0.00724324
0.00704311
0.00728499
0.00734576
0.00716095
0.00686059
0.0067665
0.00692192
0.0071494
0.00718002
0.00709394
0.00675382
0.00701075
0.00706531
0.0069002
0.00658925
0.00656492
0.00675739
0.00696082
0.00696868
0.00683038
0.00666729
0.00698075
0.00698824
0.00683301
0.00646752
0.00636107
0.00645265
0.00673682
0.0067636
0.00670711
0.00649653
0.00692431
0.00685605
0.00669524
0.0063578
0.00619785
0.00620506
0.00630407
0.00653519
0.00645272
0.00654289
0.00738587
0.0070345
0.00694014
0.00681289
0.00676064
0.00676501
0.00723228
0.00750843
0.00751503
0.00751851
0.00719177
0.00718217
0.00703919
0.00683705
0.0066862
0.00655763
0.00655323
0.00684768
0.00704489
0.00716108
0.00714094
0.00715242
0.00706502
0.00688838
0.00673925
0.00657314
0.00636736
0.00637135
0.00652729
0.00684828
0.00709749
0.00713783
0.00709538
0.00692081
0.00678842
0.00666167
0.00646652
0.00622246
0.00624744
0.00642091
0.00725502
0.00730426
0.00724163
0.00704327
0.00684651
0.00669362
0.00657708
0.00627797
0.00611832
0.00625407
0.00749391
0.00743572
0.00729603
0.00706985
0.00690614
0.00677401
0.00665086
0.00636946
0.00605214
0.00628901
0.00759881
0.00748172
0.0073014
0.00707141
0.00693062
0.00680354
0.00669951
0.00649542
0.00602894
0.00625577
0.0076554
0.00747219
0.00727386
0.00705698
0.00694494
0.00678717
0.00669967
0.00653328
0.00604177
0.00619611
0.00766429
0.00740983
0.00721076
0.00700956
0.00686721
0.00658781
0.00655419
0.00647989
0.00608117
0.0060669
0.00751701
0.00724255
0.00704108
0.00685821
0.00648159
0.00608753
0.00610788
0.00625353
0.0060161
0.00616624
0.0074362
0.00743969
0.00751533
0.00753994
0.00753409
0.00748736
0.00740057
0.00735278
0.0073455
0.00731308
0.00766409
0.00776302
0.00779551
0.00778233
0.00773386
0.00763898
0.00754002
0.00745524
0.00740932
0.00730957
0.00782453
0.00792272
0.00794331
0.00790495
0.0078158
0.0077046
0.00759929
0.00749774
0.00743932
0.00731208
0.00808316
0.0081201
0.00807451
0.00796143
0.00783751
0.00772079
0.00761893
0.00751526
0.00745034
0.00731185
0.00824842
0.00819891
0.00810472
0.00795244
0.00780496
0.00764838
0.00754426
0.00747893
0.00743043
0.00729532
0.00831704
0.00820759
0.0080645
0.00781477
0.00758923
0.00738627
0.00728691
0.00729176
0.00730823
0.00717222
0.00830588
0.00810903
0.0078506
0.00748029
0.00716297
0.00698949
0.00699654
0.00704033
0.00716606
0.00708232
0.00809299
0.00782784
0.0074225
0.00693162
0.00677281
0.00679152
0.00686801
0.00693532
0.00705658
0.00702784
0.00783679
0.00750843
0.0069124
0.00661426
0.006644
0.00672706
0.00686145
0.00696502
0.00707056
0.00693153
0.00774645
0.0072487
0.00662944
0.00648698
0.00660957
0.00673187
0.00689168
0.00700905
0.00706041
0.00718319
0.00769696
0.00760732
0.00757136
0.00757895
0.00759387
0.00761943
0.00764744
0.00767798
0.00774884
0.00817811
0.00771791
0.00762589
0.00758406
0.00759438
0.00762079
0.0076654
0.00769888
0.00773714
0.00784939
0.00808931
0.00771549
0.00761016
0.00756807
0.00758325
0.00762054
0.00768371
0.00773626
0.00781118
0.00803012
0.00823253
0.00769034
0.00757992
0.00754291
0.00756115
0.00760675
0.00768595
0.00778735
0.00798421
0.0083243
0.00855265
0.0076523
0.00753837
0.0075018
0.00751554
0.0075694
0.00769631
0.00797296
0.00836345
0.00870842
0.00895074
0.00761154
0.00749988
0.00746334
0.00744842
0.00751421
0.00778987
0.00829655
0.0087114
0.0090008
0.00917043
0.00757854
0.00746459
0.0074108
0.00733135
0.0074795
0.00803965
0.00854299
0.00891025
0.00913935
0.00926482
0.00755947
0.00744036
0.0073675
0.007252
0.00750543
0.00822263
0.00867942
0.00898867
0.00918358
0.0092866
0.0075592
0.00743395
0.00735534
0.00724141
0.00764369
0.00836203
0.00874118
0.00896195
0.00907281
0.00914192
0.00757765
0.00743951
0.00742584
0.0073951
0.00785243
0.00845148
0.00869842
0.00885441
0.00894124
0.00902556
0.00782011
0.00784384
0.00789837
0.00796095
0.00803026
0.00809921
0.00827987
0.00847787
0.00833646
0.00832927
0.00785612
0.00787126
0.00792961
0.00800053
0.00808174
0.00817837
0.00838227
0.00852331
0.0084067
0.00842023
0.00792566
0.00794603
0.00800903
0.00807585
0.00815592
0.00826658
0.00846722
0.00861372
0.00846228
0.00843727
0.00796718
0.00798694
0.00805335
0.00811651
0.00819953
0.00833762
0.0085633
0.00870697
0.00859585
0.00850709
0.00802085
0.00805474
0.00812614
0.00816825
0.00826232
0.00845541
0.00868806
0.00878402
0.00874836
0.0086711
0.00806671
0.0081143
0.00817421
0.00819781
0.00832876
0.00861505
0.00878617
0.00886473
0.00887272
0.00885863
0.00812578
0.00819881
0.00824649
0.00824376
0.00844707
0.00870477
0.00885197
0.00893345
0.00896545
0.00899482
0.00819182
0.00828036
0.00832197
0.0083192
0.00851863
0.00876132
0.00890433
0.00900599
0.00906551
0.0091146
0.00826311
0.00838058
0.00843841
0.00841041
0.00856531
0.00881774
0.00894514
0.00903358
0.00909468
0.00916592
0.00832856
0.00846971
0.00851258
0.00848454
0.00865588
0.00883968
0.00896336
0.00905773
0.00914452
0.00927751
0.0083143
0.00817085
0.00812643
0.00814319
0.00816128
0.00808634
0.00799906
0.00772723
0.00763908
0.00826708
0.00839718
0.0082122
0.0081469
0.008165
0.0082262
0.00818923
0.00810041
0.00794441
0.0076232
0.00779677
0.00844799
0.00824244
0.00817694
0.00819873
0.00827593
0.00827794
0.00821875
0.008107
0.00779814
0.00768832
0.00847608
0.00825095
0.00819212
0.00822566
0.00832468
0.00837774
0.00832869
0.00821784
0.00797625
0.00773022
0.00848353
0.00823361
0.00821545
0.00827495
0.0083952
0.00848601
0.00843632
0.00830726
0.008035
0.00774471
0.00837819
0.0082229
0.00824497
0.00834195
0.00848527
0.00859149
0.00854098
0.00838349
0.00800764
0.00790876
0.00829116
0.00824469
0.00830376
0.00843956
0.00860401
0.00870526
0.00864996
0.00844027
0.00799097
0.00828027
0.00825507
0.0082819
0.00838267
0.00855509
0.008736
0.00882902
0.00877678
0.00855426
0.0080231
0.00814975
0.00828229
0.00835399
0.00847435
0.00869876
0.00889112
0.00896683
0.00892655
0.00877454
0.00825178
0.00809209
0.00833378
0.00839842
0.00858659
0.0088665
0.00904295
0.00909245
0.0090592
0.00894025
0.00852495
0.00851881
0.00858647
0.00830021
0.0078686
0.00766818
0.00759722
0.00762281
0.00797626
0.00811857
0.00816574
0.0084005
0.0086631
0.00855834
0.00831393
0.0080422
0.00769939
0.00753256
0.00761092
0.00822047
0.00838887
0.00850692
0.00879907
0.00866751
0.00848247
0.00827717
0.00808513
0.00768517
0.00739584
0.00770593
0.00835317
0.00852634
0.0088775
0.00876206
0.00855544
0.00835988
0.00822043
0.00804813
0.00763551
0.007053
0.00813074
0.00844822
0.00891581
0.00879258
0.00857485
0.00837979
0.00826621
0.00815267
0.00795618
0.00726746
0.00753213
0.00827226
0.00893198
0.00876502
0.00849228
0.00830314
0.00824988
0.00820173
0.00807077
0.00766207
0.00732217
0.00790161
0.00888474
0.00864448
0.00837031
0.00822354
0.0081862
0.00819308
0.00813651
0.00791889
0.00736239
0.00782987
0.00871734
0.00845115
0.00818498
0.00808396
0.00810556
0.00817865
0.0081733
0.00805019
0.00748244
0.00759682
0.00845121
0.00816124
0.00798058
0.00799055
0.00806129
0.00818698
0.00821618
0.00814153
0.00778271
0.00759376
0.00810686
0.00788824
0.00787186
0.00797378
0.00812779
0.00828241
0.00831483
0.0082606
0.00809712
0.00817959
0.00904379
0.00927387
0.00935419
0.00931469
0.0092772
0.00920843
0.00910902
0.00907801
0.00905875
0.00895783
0.00909882
0.009268
0.00924075
0.00906716
0.00894202
0.00889598
0.0088905
0.00889131
0.00885666
0.00878768
0.00916478
0.00916846
0.00890668
0.0087648
0.00871872
0.00869036
0.00866067
0.00857084
0.0083853
0.00823162
0.0090655
0.00886201
0.00863318
0.00855882
0.00852176
0.00848526
0.00841843
0.00832276
0.00825166
0.00822939
0.00885924
0.00860901
0.00846553
0.00841467
0.00838396
0.00836146
0.00832071
0.0082914
0.00830181
0.00846176
0.00876038
0.00853233
0.00838629
0.00834272
0.00833156
0.00832309
0.00831847
0.00832042
0.00839107
0.0085255
0.00870168
0.00856114
0.00836016
0.00829788
0.0083038
0.00831454
0.00832472
0.00835989
0.00843162
0.00853098
0.00868193
0.00860763
0.00840976
0.00827263
0.00825119
0.00829073
0.00831127
0.00835302
0.00844976
0.00854734
0.00873191
0.00865201
0.00852958
0.0083451
0.00823901
0.00823164
0.00825836
0.00828952
0.00843608
0.00844927
0.00879765
0.00867995
0.00858637
0.00844795
0.0083096
0.00823666
0.00819498
0.0081956
0.00835742
0.00846358
0.00943191
0.00947945
0.00951666
0.00954589
0.00950308
0.0093647
0.00921238
0.00909053
0.00898468
0.00895417
0.0094023
0.00946345
0.0094954
0.00950617
0.00946518
0.00932199
0.00914765
0.00903784
0.00899223
0.00894599
0.00938667
0.0094394
0.0094762
0.00947753
0.00943481
0.00930246
0.00910918
0.00898704
0.00891087
0.00879665
0.00936654
0.00940199
0.00943865
0.0094448
0.009404
0.00928401
0.00908096
0.0089267
0.00883055
0.00870716
0.00936493
0.00938116
0.00939839
0.00940207
0.00937325
0.00927411
0.00906677
0.00888581
0.00879733
0.00872347
0.00936692
0.00937669
0.00937423
0.00936729
0.00933569
0.00926696
0.00907565
0.00887892
0.00880043
0.00874605
0.00935387
0.00937579
0.00935908
0.00933476
0.00930416
0.0092576
0.00911729
0.00889172
0.0088112
0.00872788
0.00932185
0.00934098
0.0093465
0.00932439
0.00928056
0.00923953
0.00917373
0.00896208
0.00884295
0.00874016
0.00935103
0.00935655
0.00934974
0.00930265
0.00924916
0.00920872
0.00917872
0.00910493
0.008983
0.00883566
0.00932093
0.009301
0.00924275
0.00914146
0.00905379
0.00898936
0.00899738
0.00902551
0.00899293
0.00893489
0.00937948
0.00938708
0.00944839
0.00952598
0.00955601
0.00956922
0.00956194
0.00953458
0.00952262
0.00956662
0.00940844
0.00938154
0.00942936
0.00948011
0.00950504
0.00955119
0.00961373
0.00962314
0.00969427
0.00973376
0.0094546
0.00940547
0.00945272
0.0095082
0.00953857
0.00955566
0.00966179
0.00968056
0.00972866
0.00974615
0.00959561
0.00950308
0.00949251
0.00954772
0.00959443
0.00959351
0.00965553
0.00968359
0.00972847
0.00973663
0.00961853
0.00964562
0.00960274
0.00958846
0.00961147
0.0096126
0.00961357
0.00967007
0.00971507
0.00971886
0.00961704
0.00968397
0.00968259
0.00967466
0.00962623
0.00961324
0.00961074
0.00963172
0.00968518
0.00970859
0.00962717
0.00969331
0.0096877
0.00968054
0.00970585
0.00971458
0.0097133
0.00965035
0.00967525
0.00970484
0.00964509
0.00970968
0.00975782
0.0097927
0.00980336
0.00981893
0.00977857
0.00968123
0.00969963
0.00971927
0.00972109
0.00977294
0.00979419
0.00979655
0.00978296
0.00978899
0.00975191
0.00968911
0.00958623
0.009629
0.0098103
0.00982429
0.00983408
0.00982802
0.00978401
0.00973793
0.00975451
0.00958089
0.00946339
0.0096971
0.0102391
0.0102354
0.0102234
0.0102197
0.0102163
0.0102095
0.0102032
0.0102018
0.0102074
0.0102196
0.0102423
0.0102354
0.0102269
0.010227
0.0102237
0.0102106
0.0102021
0.0102008
0.0101905
0.0101938
0.0102558
0.0102517
0.010247
0.0102502
0.0102423
0.0102376
0.0102222
0.0102143
0.0102084
0.0102059
0.0102557
0.0102563
0.0102561
0.0102568
0.0102565
0.010252
0.010239
0.0102399
0.0102368
0.0102386
0.0102371
0.0102454
0.0102514
0.0102549
0.0102565
0.0102551
0.0102437
0.0102431
0.0102458
0.0102448
0.0102247
0.0102285
0.010233
0.010238
0.0102456
0.0102526
0.0102505
0.0102468
0.0102452
0.0102423
0.0102197
0.0102263
0.0102303
0.0102331
0.0102352
0.0102413
0.0102476
0.0102471
0.010246
0.0102392
0.0102452
0.0102383
0.0102339
0.0102341
0.0102349
0.0102386
0.0102434
0.0102439
0.0102422
0.0102406
0.0102525
0.0102366
0.0102352
0.0102347
0.010235
0.010239
0.010242
0.0102421
0.0102453
0.0102337
0.0102567
0.0102403
0.0102395
0.0102389
0.0102371
0.0102355
0.0102397
0.0102433
0.0102353
0.0102272
0.010315
0.0103185
0.0103031
0.0102951
0.0102796
0.0102817
0.010287
0.0102888
0.01029
0.0102819
0.0103012
0.0103107
0.0103054
0.0103017
0.0102925
0.010297
0.0102924
0.0102936
0.0102928
0.0102645
0.0102431
0.0102798
0.0102939
0.0103004
0.0102952
0.0102882
0.0102899
0.0102922
0.0102906
0.0102518
0.0102371
0.0102297
0.010233
0.0102431
0.0102544
0.0102709
0.010283
0.0102865
0.0102882
0.010266
0.0102992
0.0102839
0.0102515
0.0102302
0.0102234
0.0102272
0.0102654
0.0102789
0.0102848
0.0102849
0.0102519
0.0102488
0.0102475
0.0102368
0.0102237
0.0102161
0.0102193
0.0102523
0.0102741
0.0102832
0.0102313
0.0102251
0.0102209
0.0102251
0.0102233
0.0102172
0.0102099
0.0102129
0.0102515
0.0102643
0.0102385
0.0102376
0.010234
0.0102295
0.0102233
0.010218
0.0102036
0.0102069
0.0102471
0.0102597
0.0102216
0.010224
0.0102312
0.0102276
0.0102218
0.0102118
0.0101872
0.0102325
0.010257
0.0102645
0.0102413
0.0102026
0.0102198
0.0102157
0.0102045
0.0101838
0.0102373
0.0102624
0.0102662
0.0102698
0.0103119
0.0102972
0.0102371
0.010259
0.0102503
0.0102075
0.0101768
0.0101712
0.0101734
0.0101948
0.0102628
0.0102629
0.0102652
0.0102875
0.0102784
0.0102521
0.0102361
0.010234
0.0102436
0.0102685
0.0102663
0.0102769
0.0102898
0.0102889
0.0102781
0.0102684
0.0102643
0.0102697
0.0102802
0.0102965
0.0102627
0.0102782
0.0102833
0.0102809
0.0102724
0.0102692
0.0102696
0.0102757
0.0102885
0.0103052
0.0102505
0.0102686
0.0102735
0.0102733
0.0102675
0.0102654
0.0102666
0.0102718
0.0102863
0.0103065
0.010224
0.0102579
0.0102655
0.0102676
0.0102662
0.0102627
0.0102639
0.0102684
0.0102799
0.0102952
0.0102178
0.0102396
0.0102605
0.0102644
0.0102635
0.0102595
0.0102593
0.010259
0.0102607
0.0102723
0.0102042
0.010236
0.0102568
0.0102617
0.0102605
0.0102509
0.01024
0.0102355
0.0102411
0.0102623
0.010208
0.0102397
0.0102608
0.0102649
0.0102601
0.0102426
0.0102335
0.010233
0.0102458
0.0102672
0.0102233
0.0102524
0.0102696
0.0102716
0.0102639
0.0102497
0.0102452
0.0102531
0.0102757
0.0102893
0.00940354
0.00942045
0.00942672
0.00942588
0.00942386
0.0094303
0.00944061
0.0094446
0.00944135
0.00942113
0.0094046
0.00941638
0.00943384
0.00944354
0.00944969
0.00945712
0.0094659
0.0094676
0.00946667
0.00946157
0.00942505
0.00941395
0.00942178
0.00943841
0.00944938
0.0094605
0.0094716
0.00947989
0.00947983
0.00947737
0.00945276
0.00943273
0.00941957
0.00942182
0.00943711
0.00945174
0.00946614
0.00947809
0.00948303
0.00948142
0.00947143
0.00945195
0.00943089
0.0094175
0.0094185
0.00943184
0.0094486
0.00946593
0.00947641
0.009479
0.00946971
0.00945893
0.0094353
0.00941741
0.00940808
0.00941274
0.00942512
0.00944258
0.00946093
0.0094723
0.00944988
0.00944761
0.00942999
0.00941028
0.0093959
0.00939343
0.00940249
0.00941777
0.00943796
0.00945567
0.00941208
0.00941983
0.00941161
0.00939535
0.00938111
0.00937787
0.00938552
0.0093999
0.00941877
0.00944018
0.00936789
0.00938183
0.00938132
0.00937411
0.00936756
0.00936931
0.00937732
0.00939208
0.00940904
0.00942881
0.00931294
0.00933999
0.009348
0.00934887
0.00935233
0.00935966
0.0093715
0.00938767
0.0094056
0.00942149
0.0094607
0.00946114
0.00946498
0.00946152
0.00945401
0.00945246
0.00945921
0.00945919
0.00945586
0.00943854
0.00946571
0.00945973
0.00947323
0.00948056
0.00948218
0.00948505
0.00948932
0.00948909
0.00948479
0.0094804
0.00948847
0.00946284
0.00945888
0.0094743
0.00948292
0.00948947
0.00949602
0.00950079
0.00950088
0.00949624
0.00951907
0.00948426
0.00946024
0.00945381
0.00946663
0.0094791
0.00948881
0.0094972
0.00950101
0.00949728
0.00953816
0.00950501
0.00947352
0.00945122
0.0094429
0.00945161
0.00946548
0.00947988
0.00949035
0.00949166
0.0095307
0.00951108
0.00947652
0.00944904
0.00943033
0.00942483
0.00943319
0.00944563
0.00946167
0.00947369
0.009503
0.00949314
0.00946759
0.00943792
0.00941518
0.00940283
0.0094045
0.00941546
0.00942845
0.00944624
0.00945951
0.00945937
0.00944857
0.00942517
0.00940145
0.00938615
0.00938353
0.00939292
0.00940474
0.00942591
0.0094092
0.00941789
0.00941981
0.00940876
0.00939126
0.00937887
0.00937679
0.00938494
0.00939567
0.00941402
0.00934991
0.00937045
0.00938497
0.00938644
0.00938025
0.00937541
0.00937739
0.00938517
0.00939625
0.00941103
0.00953081
0.00951677
0.00951258
0.00950587
0.00949457
0.00948766
0.00948912
0.00948428
0.00947728
0.00946285
0.00953636
0.00952056
0.00952154
0.00952425
0.00952234
0.00952108
0.00952054
0.00951718
0.00951029
0.00950306
0.0095519
0.00952555
0.00951364
0.00951987
0.00952366
0.00952379
0.00952481
0.00952525
0.00952282
0.00951516
0.00958192
0.00953826
0.00951235
0.0094994
0.00950316
0.00950985
0.00951489
0.0095179
0.00951842
0.00951318
0.00959811
0.00956059
0.00951494
0.00948642
0.00947255
0.00947408
0.00948116
0.00949052
0.0094982
0.00949828
0.00958614
0.00956248
0.00951679
0.00947526
0.00944861
0.00943662
0.00943864
0.00944501
0.00945487
0.00946554
0.00955714
0.00953946
0.00950146
0.0094593
0.00942671
0.00940739
0.0093997
0.00940717
0.00941555
0.00943073
0.00951112
0.00949798
0.00947476
0.00944547
0.00941512
0.00939111
0.0093788
0.00938027
0.0093874
0.00940258
0.00945524
0.00945085
0.00944488
0.00943337
0.00941262
0.00938918
0.00937576
0.00937589
0.0093823
0.00939301
0.00938561
0.00939384
0.00940962
0.00941948
0.00941563
0.0094009
0.00938957
0.00938888
0.00939353
0.00940158
0.00960366
0.00958024
0.00956955
0.00955864
0.0095446
0.00953463
0.00952948
0.0095218
0.00950355
0.00948926
0.00960528
0.0095866
0.0095785
0.00957756
0.00957112
0.00956409
0.00955668
0.00954907
0.00953646
0.00952796
0.00961408
0.00958781
0.00957229
0.00957039
0.00956859
0.00956403
0.00955709
0.00955177
0.00954417
0.00953429
0.00963021
0.00959225
0.00956592
0.00954835
0.0095433
0.00954196
0.00953976
0.00953776
0.00953435