/*--------------------------------*- C++ -*----------------------------------*\
  =========                 |
  \\      /  F ield         | OpenFOAM: The Open Source CFD Toolbox
   \\    /   O peration     | Website:  https://openfoam.org
    \\  /    A nd           | Version:  9
     \\/     M anipulation  |
\*---------------------------------------------------------------------------*/
FoamFile
{
    format      ascii;
    class       volScalarField;
    location    "79";
    object      f1.gas;
}
// * * * * * * * * * * * * * * * * * * * * * * * * * * * * * * * * * * * * * //

dimensions      [0 0 0 0 0 0 0];

internalField   nonuniform List<scalar> 
137980
(
0.000195821
0.000212972
0.000251091
0.000329401
0.000422495
0.000482396
0.000493596
0.000496727
0.000501228
0.000499504
0.000188683
0.000194787
0.000217599
0.00028373
0.000379044
0.000457871
0.000474784
0.00047093
0.000462398
0.000459934
0.00017988
0.000180822
0.000190578
0.000231686
0.000298194
0.000403192
0.000470682
0.000473241
0.000438496
0.000414237
0.000152708
0.000152528
0.000156482
0.000184528
0.000236586
0.000298875
0.000382513
0.000440539
0.000439371
0.000390341
0.000123267
0.000124889
0.000129264
0.000144223
0.000173866
0.000217781
0.000270597
0.000323812
0.000358777
0.000355581
0.000101288
0.000102311
0.000105015
0.000112777
0.000129076
0.000155804
0.000188815
0.000223589
0.00024193
0.000257101
9.30326e-05
9.31104e-05
9.50329e-05
9.85397e-05
0.00010613
0.000123495
0.000148181
0.000171507
0.00018368
0.000195151
9.06244e-05
9.02245e-05
9.15618e-05
9.35916e-05
9.66657e-05
0.000107477
0.000131726
0.000152181
0.000159386
0.000162021
9.11494e-05
9.03745e-05
9.1221e-05
9.2849e-05
9.49114e-05
0.000101928
0.000123263
0.000141801
0.00014464
0.000143647
9.70247e-05
9.51759e-05
9.60996e-05
9.71892e-05
9.85716e-05
0.000104033
0.000120712
0.000130556
0.000134184
0.000134348
0.00016198
0.000190233
0.000227777
0.000295338
0.000385261
0.000453287
0.000480977
0.000498272
0.000519179
0.000543269
0.000163504
0.000171972
0.00019776
0.00026075
0.00036034
0.000443151
0.000468024
0.000478119
0.000491338
0.000504128
0.00015098
0.000160687
0.000180541
0.000218971
0.000293707
0.00041337
0.000463851
0.000466096
0.000455252
0.000458558
0.000134279
0.000139522
0.000146832
0.000177704
0.000234691
0.000311223
0.000411672
0.000447073
0.000444037
0.000400641
0.00011011
0.000113943
0.000123752
0.00014228
0.000176294
0.000225745
0.000290761
0.000363994
0.00039443
0.000377703
9.28562e-05
9.46024e-05
9.91166e-05
0.000110827
0.000130779
0.000161341
0.000199554
0.000243719
0.000274265
0.000294267
8.57957e-05
8.60364e-05
8.82695e-05
9.38278e-05
0.000105633
0.000125846
0.000151711
0.000176923
0.000192752
0.000209196
8.37536e-05
8.29898e-05
8.39765e-05
8.69245e-05
9.32646e-05
0.000105937
0.000125033
0.000142206
0.000151756
0.000163121
8.52326e-05
8.29131e-05
8.32572e-05
8.4763e-05
8.93999e-05
9.90996e-05
0.000113284
0.000121734
0.000124875
0.000129116
9.27136e-05
8.68506e-05
8.63085e-05
8.70805e-05
9.0231e-05
9.98111e-05
0.000113174
0.000116709
0.000115835
0.000116
0.000135329
0.00016557
0.000203915
0.000268496
0.000360533
0.000449366
0.000496331
0.000518838
0.000576926
0.000782897
0.000146543
0.000159268
0.000185289
0.000251393
0.000359978
0.000454531
0.000501544
0.00057941
0.000668359
0.000786587
0.000128193
0.000143407
0.000172171
0.000218523
0.000306393
0.000439066
0.000496382
0.000550554
0.000658875
0.000748474
0.000117704
0.000125489
0.000138712
0.000181341
0.000248337
0.000356973
0.000465385
0.000509701
0.000557717
0.000577324
9.88171e-05
0.000104731
0.000120137
0.000145694
0.000188469
0.000259036
0.000363205
0.000452902
0.000484651
0.000479713
8.60135e-05
8.85148e-05
9.65843e-05
0.000113406
0.000139694
0.000182643
0.000243289
0.000319712
0.000373101
0.000396535
8.05087e-05
8.05221e-05
8.45251e-05
9.39448e-05
0.000109682
0.000136194
0.000171012
0.000212581
0.000247174
0.000279126
7.9197e-05
7.7513e-05
7.90452e-05
8.34164e-05
9.36337e-05
0.000109858
0.000130904
0.000152479
0.000168597
0.000189872
7.99627e-05
7.80121e-05
7.77255e-05
8.04208e-05
8.47975e-05
9.61075e-05
0.000110853
0.000122433
0.000127293
0.000135
8.38144e-05
8.03125e-05
7.9468e-05
8.14191e-05
8.55056e-05
9.12611e-05
9.93763e-05
0.000105519
0.000108306
0.000110767
0.000123102
0.000148632
0.000178511
0.000233297
0.000330129
0.000436459
0.000494497
0.000466837
0.000523844
0.000664345
0.000134247
0.000148582
0.000171557
0.000236347
0.000350045
0.000470462
0.000539478
0.000564258
0.000605879
0.000769052
0.000116281
0.000133572
0.000165034
0.000219403
0.00031788
0.000470502
0.000579697
0.000673155
0.000780676
0.000885748
0.000108963
0.000118453
0.000138287
0.000188661
0.000277458
0.000424216
0.000591954
0.000695217
0.000845209
0.00093372
9.25433e-05
0.000101936
0.000121601
0.000154955
0.000220836
0.000343297
0.00053446
0.000674487
0.000825298
0.00091826
8.11797e-05
8.58556e-05
9.78442e-05
0.000121612
0.000165062
0.000246228
0.000390106
0.00058098
0.000750931
0.000861407
7.52698e-05
7.72347e-05
8.34613e-05
9.81605e-05
0.000125568
0.000174099
0.000254945
0.000385114
0.000553547
0.000691856
7.14635e-05
7.27814e-05
7.5488e-05
8.4297e-05
0.000100292
0.000129497
0.000171531
0.000230351
0.000304361
0.000398848
6.87836e-05
7.01935e-05
7.24185e-05
7.55508e-05
8.72653e-05
0.000103639
0.00012708
0.000151786
0.00017067
0.000203941
7.25601e-05
7.0018e-05
7.26405e-05
7.47443e-05
7.98583e-05
9.2859e-05
0.000106755
0.000117474
0.000121669
0.000118666
0.000112246
0.000134865
0.000165054
0.000204648
0.000275015
0.000403293
0.000484741
0.000484775
0.000572183
0.000522548
0.000126034
0.000141618
0.000163337
0.000219653
0.000334215
0.000479516
0.000560817
0.000582019
0.00065577
0.000626694
0.000100968
0.000125692
0.000160827
0.000224417
0.000355499
0.000547844
0.000664069
0.000745184
0.000838746
0.0008143
9.17642e-05
0.000106884
0.000139404
0.000211102
0.000359967
0.000582655
0.000763201
0.000861159
0.000980618
0.0010045
7.82057e-05
9.50529e-05
0.00012287
0.000178998
0.000308333
0.00054837
0.000831485
0.00101124
0.00108192
0.00109907
6.86893e-05
7.83035e-05
9.95667e-05
0.000139393
0.000226563
0.000417489
0.000752269
0.00110037
0.00125573
0.00128723
6.38223e-05
6.87201e-05
8.42616e-05
0.000111979
0.000173616
0.000312982
0.00059521
0.00102693
0.00131129
0.00145492
6.25728e-05
6.34438e-05
7.27536e-05
9.16573e-05
0.000130736
0.000219293
0.000409602
0.000762403
0.00116245
0.00135831
6.55626e-05
6.19202e-05
6.54518e-05
7.86949e-05
0.000103064
0.000152546
0.000248487
0.000409587
0.000635489
0.000778764
7.11652e-05
6.44049e-05
6.37898e-05
7.06224e-05
8.60356e-05
0.000117917
0.000175853
0.000234333
0.000228166
0.000189682
0.000108146
0.000121342
0.000142273
0.000171745
0.000220236
0.000320563
0.000520047
0.000599228
0.000468582
0.000606265
0.000108686
0.000123993
0.000145264
0.000194327
0.000298779
0.000497066
0.000650817
0.000744516
0.000650562
0.000666964
8.09303e-05
0.000106446
0.000150042
0.000225334
0.000380512
0.000627912
0.000834348
0.000946815
0.00083919
0.000780229
7.25575e-05
9.30735e-05
0.000138273
0.000227948
0.000415683
0.000729717
0.00104556
0.00120762
0.00116352
0.0010225
6.78777e-05
8.64079e-05
0.000125769
0.000206866
0.000405275
0.000793422
0.00122632
0.00141122
0.00140629
0.00119334
6.51874e-05
7.4834e-05
0.00010538
0.00018049
0.000375879
0.000828898
0.00149154
0.00174264
0.00174721
0.00139634
6.48071e-05
6.86527e-05
9.05108e-05
0.0001556
0.000343956
0.000824911
0.00159788
0.00187512
0.00188537
0.00154748
7.00567e-05
6.54955e-05
7.7115e-05
0.000126819
0.000286746
0.000736411
0.00159215
0.00216196
0.00223314
0.00200941
8.04914e-05
6.99392e-05
6.91685e-05
9.90608e-05
0.000206398
0.000540233
0.00131993
0.00209304
0.00241478
0.00277126
8.49367e-05
7.21673e-05
6.76169e-05
8.21254e-05
0.000146447
0.00037781
0.000927908
0.00157947
0.00155971
0.00131186
0.000113137
0.000114234
0.000120965
0.000141738
0.000184332
0.000342512
0.000936923
0.000695832
0.00051903
0.00218094
9.30797e-05
0.000112123
0.00014324
0.000200889
0.000331682
0.000797565
0.001198
0.000801255
0.000622639
0.00213571
7.92913e-05
0.000109117
0.000163285
0.000274526
0.000570295
0.00128155
0.00146365
0.000950594
0.000718459
0.00204176
7.40399e-05
0.0001018
0.000171499
0.000358891
0.000895388
0.00163673
0.00176763
0.00119674
0.000905553
0.0019476
7.31167e-05
0.000101061
0.000189173
0.000460993
0.00128053
0.00199551
0.0021092
0.00150011
0.00111929
0.00192955
7.56211e-05
9.82028e-05
0.000210409
0.000602759
0.00170302
0.00234766
0.00246281
0.00188211
0.00142823
0.00196052
8.46414e-05
9.63539e-05
0.000229593
0.000781192
0.00213832
0.00270245
0.00279731
0.0021637
0.00187243
0.00207575
0.000105713
9.39497e-05
0.000230495
0.000912619
0.00252581
0.00317051
0.00331376
0.00273318
0.00244524
0.00234728
0.000132072
0.000109003
0.000221594
0.000962225
0.00267397
0.00336991
0.0036111
0.00327359
0.00300146
0.00292377
0.000162541
0.000122212
0.000239204
0.000919162
0.00271603
0.00383076
0.00459076
0.00488209
0.00485247
0.00457959
0.000125927
0.000118197
0.000127431
0.000148821
0.000193108
0.000500155
0.000470908
0.000464084
0.00238288
0.0153927
0.000101558
0.000137107
0.000222399
0.000410724
0.000636006
0.000760334
0.000720015
0.0010558
0.0055575
0.0160717
0.000113345
0.000215023
0.000528576
0.000875283
0.0010255
0.00107554
0.00109991
0.00218062
0.00886981
0.0157065
0.000124386
0.000295895
0.000835499
0.00125856
0.00141623
0.00144751
0.00161502
0.00329445
0.0109635
0.0145453
0.000145486
0.00037649
0.00110988
0.00160983
0.00176583
0.00182516
0.00209825
0.00435596
0.0115888
0.0143233
0.000170754
0.000439745
0.00130054
0.00190741
0.00213441
0.002246
0.00253291
0.0045678
0.0114301
0.0139959
0.000192955
0.000481395
0.00156861
0.00229229
0.00254111
0.00264373
0.00278263
0.00446836
0.0108529
0.0134103
0.000221483
0.000445235
0.0016167
0.00257881
0.00291646
0.00303343
0.00307056
0.00424656
0.00959751
0.0121258
0.000282631
0.000446246
0.00168228
0.00292732
0.00334829
0.0034745
0.00341839
0.00420022
0.00837154
0.0113094
0.000581309
0.000572011
0.001952
0.00317207
0.00361102
0.00379418
0.00378029
0.00420337
0.00627471
0.00936556
0.000143362
0.000143723
0.000153863
0.000161397
0.000201871
0.0003073
0.000531634
0.00272258
0.0199021
0.0220229
0.000152151
0.00023292
0.000282043
0.000305384
0.000405987
0.000674164
0.00182057
0.0101778
0.0184435
0.011571
0.000328266
0.000525346
0.000586112
0.000648958
0.000831749
0.0015449
0.0053348
0.013051
0.0138099
0.00516171
0.000480047
0.000826008
0.000930572
0.0010211
0.00143807
0.00338949
0.0099228
0.0125577
0.0083546
0.00286466
0.000755643
0.00119913
0.00139928
0.00162767
0.00255452
0.00611653
0.0108614
0.011343
0.00493896
0.00209854
0.000928786
0.00150744
0.00177293
0.0022415
0.00375068
0.00799035
0.010758
0.00971903
0.00379861
0.00206483
0.00108546
0.00174159
0.00211821
0.00285229
0.00464512
0.00882646
0.010499
0.00875716
0.00357901
0.00220786
0.00118606
0.00198762
0.0025052
0.00335369
0.00526945
0.00900935
0.0101393
0.00828967
0.00370632
0.00262207
0.00119994
0.00203849
0.00265679
0.0036676
0.00559728
0.0089521
0.00999123
0.00837505
0.00398621
0.00301001
0.00127786
0.00215163
0.00297234
0.00408133
0.00575022
0.00870689
0.00977795
0.00883533
0.00478493
0.00376564
0.000219604
0.000211119
0.000209274
0.000234034
0.00041731
0.00127232
0.00690839
0.018831
0.0178084
0.0157922
0.00023419
0.000283431
0.000303144
0.000439423
0.00116682
0.0044374
0.0150443
0.0180489
0.014069
0.0108054
0.000355191
0.000459581
0.000526537
0.000975648
0.00307139
0.0114503
0.0154853
0.0149233
0.00777442
0.00537413
0.000682159
0.000813214
0.00101612
0.00222948
0.00732129
0.0137101
0.0145009
0.00905886
0.00445318
0.00283128
0.000931343
0.00112189
0.00169834
0.0042897
0.0109972
0.0135337
0.0122012
0.00543613
0.00290379
0.00196018
0.00144301
0.00177729
0.00294132
0.0067652
0.012094
0.0129606
0.00896287
0.00373534
0.00217092
0.00162957
0.00166909
0.00211692
0.00377115
0.00838486
0.0121127
0.0122111
0.00715368
0.00295183
0.00184456
0.00154761
0.00202495
0.00273414
0.0047655
0.00951922
0.0120362
0.0113754
0.00569543
0.00255712
0.00172478
0.00156449
0.0021874
0.0028727
0.00495212
0.00962474
0.0118427
0.0112064
0.00570854
0.0025786
0.00172878
0.00159783
0.00234656
0.00324509
0.00550461
0.00985848
0.0117541
0.0113835
0.00647468
0.00283823
0.0018099
0.00172917
0.000536828
0.00045649
0.000362823
0.000383975
0.000610085
0.00168699
0.00934111
0.0117728
0.0105259
0.0116426
0.000454505
0.000444832
0.000409107
0.000555651
0.00126899
0.00433781
0.0120938
0.0130886
0.0126556
0.0132101
0.000482873
0.000505482
0.000547676
0.00097985
0.00284251
0.00980537
0.0131339
0.0131232
0.0125412
0.0124138
0.000686116
0.000723411
0.000878019
0.00194506
0.00631429
0.0124908
0.0135634
0.012806
0.011516
0.00905863
0.000950746
0.00100212
0.00150447
0.00398274
0.0104884
0.013318
0.0134665
0.0119327
0.00913528
0.00594725
0.00150615
0.00170908
0.00292901
0.00677033
0.0123938
0.0135869
0.0129162
0.0101151
0.00675125
0.00423844
0.00186488
0.00210103
0.00391547
0.00972827
0.0132111
0.0135913
0.0123593
0.00868132
0.00537322
0.00351136
0.00222257
0.00292527
0.00575819
0.011498
0.0134963
0.0135576
0.0112822
0.00759099
0.00461361
0.00309048
0.00247225
0.00314585
0.00639272
0.0122099
0.0137876
0.0136319
0.0112176
0.00733841
0.00418598
0.00298981
0.0026405
0.00375652
0.00752576
0.0129305
0.013972
0.0138048
0.0118511
0.00791622
0.00416007
0.00277719
0.000805581
0.000789129
0.000774363
0.00094921
0.00123408
0.00255026
0.00522354
0.00458196
0.00491441
0.00526201
0.000917944
0.000912672
0.000983831
0.0012949
0.00182974
0.00347711
0.00558324
0.00524719
0.00531339
0.00550605
0.0013214
0.00123279
0.0014408
0.0019745
0.00303606
0.00524932
0.00632551
0.00574482
0.00565425
0.00587982
0.00230852
0.00208449
0.0024217
0.003375
0.00543321
0.00658304
0.00690506
0.00598995
0.00600738
0.00634303
0.0039766
0.00345716
0.00408853
0.00566379
0.00720453
0.00763395
0.00696534
0.00619362
0.0062959
0.00684194
0.00549519
0.00505063
0.00605598
0.00753439
0.00841695
0.00808074
0.00707505
0.00661187
0.00694683
0.00749438
0.00637768
0.005777
0.00668996
0.00870105
0.00951973
0.00860589
0.00736435
0.00714832
0.00746971
0.00908605
0.00798601
0.00730592
0.00809807
0.0102894
0.010608
0.00945072
0.00809421
0.00801616
0.00864337
0.00965329
0.00805891
0.00775305
0.00849011
0.0110097
0.0119114
0.0112302
0.00924011
0.00891951
0.00925275
0.0108551
0.00833747
0.0085735
0.00931325
0.011663
0.013021
0.0129457
0.0120715
0.0103598
0.0107637
0.01084
0.00615743
0.00783653
0.00829463
0.00901457
0.00938171
0.00932465
0.00659274
0.00531854
0.00542766
0.00551593
0.00696663
0.00690307
0.00754142
0.00865648
0.00976581
0.0107217
0.0108165
0.0088967
0.0078344
0.00722694
0.0070133
0.00688669
0.00730988
0.00829821
0.00927138
0.0104264
0.0119793
0.0119926
0.0109311
0.00891109
0.00712636
0.00687072
0.0070456
0.00806735
0.00897126
0.00974413
0.0110293
0.0129066
0.0127602
0.0115426
0.00621828
0.00598631
0.00631824
0.00742812
0.00862108
0.00954589
0.0102437
0.0122986
0.0136134
0.0123782
0.00535824
0.0055755
0.00613308
0.00734587
0.00830463
0.00909007
0.00980265
0.0116016
0.0140606
0.0118289
0.00505866
0.00544981
0.0061488
0.00736905
0.00816206
0.00892913
0.00953268
0.0107825
0.0142208
0.012006
0.00492582
0.0056315
0.00640102
0.00750014
0.0080703
0.00902993
0.00956162
0.0106134
0.0141641
0.0124384
0.0049215
0.00592834
0.00673805
0.00774651
0.00853214
0.0102955
0.0105676
0.011056
0.0140131
0.0134965
0.00561722
0.00665528
0.00758324
0.00858508
0.0107907
0.0142091
0.0141203
0.0131783
0.0146152
0.0126812
0.00657692
0.00642876
0.00591531
0.00571495
0.00567867
0.00576174
0.0059816
0.00606657
0.00605486
0.00610834
0.00558043
0.004935
0.00467312
0.00464935
0.00475545
0.00504428
0.00540272
0.00567068
0.00579525
0.00610947
0.0048165
0.00427967
0.00409032
0.00412814
0.00438628
0.0047768
0.00517357
0.00556692
0.00574304
0.00614824
0.00377417
0.00348694
0.00353363
0.00381963
0.00428532
0.00471169
0.00512083
0.00556027
0.00576085
0.00620135
0.00312588
0.00316475
0.00336365
0.00382235
0.00436041
0.00501362
0.0055634
0.0058836
0.00599116
0.0063563
0.00285294
0.00305129
0.00342836
0.0042796
0.00523504
0.00629062
0.00695853
0.00694403
0.00675054
0.0070187
0.00277265
0.00328476
0.00409231
0.00570863
0.00747395
0.00866319
0.00875099
0.00854896
0.00767839
0.00758937
0.00328119
0.00426717
0.00594956
0.00877941
0.0100778
0.010131
0.00983614
0.0094941
0.00860094
0.00806539
0.00439143
0.00574843
0.0088526
0.0110769
0.0109839
0.0106703
0.0100756
0.00960115
0.00858471
0.00838407
0.00486393
0.00694303
0.0109151
0.0120054
0.0112271
0.0107997
0.0102573
0.00919883
0.00825433
0.00687507
0.00445279
0.00514795
0.00554902
0.00556677
0.00553651
0.0054621
0.00536459
0.00528072
0.00501778
0.0031757
0.00435582
0.00507879
0.00553624
0.00555639
0.00550444
0.00537086
0.00523178
0.00508027
0.00462053
0.00349736
0.00448322
0.00532436
0.00578633
0.00576767
0.00565779
0.00541201
0.00515448
0.00478605
0.00376913
0.00297774
0.004772
0.00559825
0.00599402
0.00597054
0.0058173
0.00545162
0.00487496
0.00377985
0.00247834
0.00176176
0.00511732
0.00593591
0.0063025
0.00628716
0.00603735
0.00529719
0.00367206
0.00221173
0.0014824
0.0011475
0.00547915
0.00622811
0.00655848
0.0066825
0.00627031
0.00454453
0.00250183
0.00156516
0.00114486
0.000954076
0.00573395
0.00647213
0.00689236
0.00733863
0.00640846
0.00363544
0.00209324
0.00135374
0.00102396
0.000878487
0.00590752
0.00663763
0.00720904
0.00783071
0.00628714
0.00323112
0.00194708
0.00129835
0.000998471
0.000872382
0.00596668
0.00670602
0.00733596
0.00794953
0.00565733
0.00294317
0.00191725
0.00144691
0.00122976
0.00112334
0.00594472
0.00671744
0.00721844
0.00714368
0.00483737
0.00260765
0.00200727
0.0017331
0.00161967
0.00150971
0.00400133
0.00422394
0.00425941
0.00426909
0.00422665
0.00411893
0.00381959
0.00306685
0.00318756
0.00333617
0.00386483
0.00407546
0.00412785
0.00418503
0.00413323
0.00398981
0.00358733
0.00287694
0.00314221
0.00314695
0.00380629
0.00399837
0.00404457
0.00411941
0.00405911
0.00386103
0.00331434
0.00268845
0.00302553
0.00309119
0.00375658
0.00389752
0.00394496
0.00406188
0.00398122
0.00367096
0.00293207
0.00238131
0.00267663
0.00290071
0.00369223
0.00380326
0.00387006
0.00403423
0.0038765
0.00326404
0.0024207
0.00211297
0.0021819
0.00248643
0.00362405
0.00367417
0.00375238
0.00398816
0.00362949
0.00257007
0.00207022
0.00185283
0.00186895
0.0020237
0.00350334
0.00351623
0.00360557
0.00389484
0.00314168
0.00224746
0.00187272
0.00171953
0.00173143
0.00179759
0.00335027
0.00329842
0.00337048
0.00357138
0.00277556
0.00204276
0.00169891
0.0015301
0.0015059
0.00149169
0.00318703
0.00305572
0.00302383
0.0031383
0.00255022
0.0017805
0.00151341
0.00142222
0.00139161
0.00132998
0.00304254
0.00282528
0.00278132
0.00290764
0.00217569
0.00163682
0.0013813
0.00127964
0.001187
0.000973947
0.00201264
0.00247401
0.00298055
0.00306037
0.00312986
0.00334835
0.00353149
0.00444329
0.00496942
0.00296458
0.00169282
0.00234122
0.00287956
0.00299192
0.00302733
0.00311124
0.00335427
0.00366
0.00506058
0.00458028
0.00160502
0.00228934
0.00284582
0.00294629
0.00295807
0.00297015
0.00308742
0.00330052
0.00429417
0.00506655
0.00151579
0.00229662
0.00283807
0.00291239
0.00289294
0.00279942
0.00287312
0.00305952
0.00363586
0.00498065
0.00150065
0.00253086
0.00286438
0.00287804
0.00281503
0.00260797
0.00266546
0.00286614
0.00349461
0.00499149
0.00176771
0.00273459
0.00287196
0.00283939
0.00268888
0.00239522
0.00244981
0.00269773
0.00370813
0.00425439
0.00227
0.00283104
0.00285644
0.00275378
0.00245264
0.00219262
0.00225577
0.00259293
0.00379486
0.00265614
0.00263329
0.00287286
0.00282539
0.00258626
0.00215893
0.00194268
0.00200686
0.00236689
0.00371072
0.00291686
0.00279223
0.00288296
0.00273663
0.00224814
0.0018457
0.00169204
0.00174199
0.00196445
0.00315912
0.00336609
0.00285708
0.00288015
0.00255462
0.0018777
0.00157066
0.00147557
0.00152119
0.00168359
0.00249896
0.00245267
0.00165819
0.00188726
0.00317023
0.0039334
0.00428488
0.00432224
0.00357172
0.00331248
0.00331506
0.00275056
0.00119081
0.00140782
0.00192078
0.00259022
0.00361483
0.00437689
0.00437762
0.00293558
0.00266441
0.00248624
0.0010798
0.00122996
0.00158158
0.0021079
0.00259481
0.00351131
0.00482114
0.00429431
0.00262494
0.00232819
0.000961291
0.00110447
0.0014422
0.00195427
0.00236654
0.0027155
0.00348671
0.006584
0.00295689
0.00242314
0.000915041
0.00106198
0.00140385
0.0019259
0.00231758
0.00259112
0.00294356
0.00527026
0.00446646
0.00270138
0.000890474
0.00108892
0.00154179
0.00217099
0.00251239
0.00258636
0.00279928
0.00362507
0.00514778
0.00350848
0.000974516
0.00126894
0.00188513
0.00255018
0.0028008
0.00279886
0.00285414
0.0031792
0.00495262
0.00367465
0.00123285
0.00163092
0.0024869
0.00316694
0.00321553
0.00311875
0.00296416
0.00306847
0.0045324
0.00430295
0.00172054
0.00236434
0.00350758
0.00376454
0.00369115
0.00351316
0.0031781
0.00314083
0.00357348
0.00426784
0.00256104
0.00371126
0.0042464
0.00416742
0.00386651
0.00360111
0.00324613
0.00320522
0.00333389
0.00327284
0.000967577
0.000806326
0.000782666
0.000882209
0.000926595
0.000936335
0.000934868
0.000915425
0.000915542
0.000987041
0.00091237
0.000776343
0.000860302
0.0010065
0.00107429
0.0010969
0.00110326
0.00112768
0.00125716
0.00148967
0.00083815
0.000847009
0.00107756
0.00122398
0.00128655
0.00137784
0.00155438
0.0020304
0.00289384
0.00361281
0.000920872
0.00110903
0.00141826
0.00156922
0.00175046
0.00207637
0.00262294
0.00327284
0.00361004
0.00375388
0.00116897
0.00158242
0.00195143
0.00216249
0.00241717
0.00278173
0.00325514
0.0034906
0.0035315
0.00322338
0.00123449
0.00163902
0.00214831
0.00247866
0.00275024
0.00309496
0.00338109
0.00347172
0.00341631
0.00303941
0.00132353
0.00153031
0.00209491
0.00248778
0.00277144
0.00308692
0.00336647
0.00342046
0.00337343
0.00298983
0.00144043
0.00145109
0.00181016
0.00238157
0.00271235
0.00298576
0.00329862
0.00338408
0.00333017
0.00300761
0.00142808
0.00148496
0.00159855
0.0019593
0.00241067
0.00268447
0.00295821
0.00327412
0.00329714
0.00315168
0.00133751
0.0015647
0.00162999
0.00181418
0.00209841
0.00237016
0.00250578
0.00273838
0.00317097
0.00311333
0.000574951
0.000537947
0.000519103
0.00051689
0.000568415
0.000713545
0.00089016
0.00101904
0.00114518
0.00126551
0.000599867
0.000544327
0.000524688
0.000527094
0.000576532
0.00073716
0.000955067
0.0011195
0.00125042
0.00145163
0.000621614
0.000557944
0.000533838
0.000538793
0.000587757
0.000745832
0.000998649
0.00123213
0.00149524
0.00188548
0.000667329
0.000599085
0.000554894
0.000553979
0.000600513
0.000754973
0.00103172
0.00137642
0.00176033
0.00220761
0.000692005
0.000650477
0.000608061
0.000591516
0.00063221
0.000781824
0.00110902
0.00155812
0.00195491
0.00217921
0.000730598
0.000672428
0.00066207
0.000656691
0.000696488
0.000817695
0.00111405
0.00162494
0.00199446
0.00213756
0.000788512
0.000702186
0.000693654
0.000702732
0.000742329
0.000845504
0.00108777
0.00160484
0.00198376
0.00213143
0.000821727
0.000764595
0.000710357
0.00071009
0.000752043
0.000845336
0.00101247
0.00146898
0.00192258
0.00211034
0.00079712
0.000764255
0.000723051
0.000732423
0.000772505
0.000841335
0.000922599
0.00109564
0.0015437
0.00197675
0.000817001
0.00084275
0.000831589
0.00089929
0.000986817
0.00107084
0.0010825
0.00111313
0.00123143
0.00155591
0.000766728
0.000752396
0.000662701
0.000549815
0.000512326
0.000498503
0.000501791
0.00051098
0.000511604
0.000494436
0.000733329
0.000764331
0.000719304
0.000641718
0.000584591
0.000528985
0.000467442
0.000461486
0.000417445
0.000396962
0.000689283
0.000734311
0.000707818
0.000643325
0.000587531
0.000544705
0.000448379
0.000426264
0.000399504
0.000390761
0.00055783
0.000635222
0.000655198
0.000615208
0.000548752
0.000532021
0.000457184
0.000428684
0.000400475
0.000394273
0.000529046
0.000523027
0.000558155
0.000565338
0.000539603
0.000519787
0.000494525
0.000439813
0.000405713
0.000406282
0.000530352
0.000487146
0.000486435
0.000489804
0.00052298
0.00051327
0.000505835
0.000476894
0.000425217
0.000412245
0.000522197
0.0004758
0.000470021
0.00047045
0.00045897
0.000456099
0.000449384
0.000467979
0.000440042
0.000417739
0.000502946
0.000449365
0.000399386
0.000369581
0.00036326
0.00036214
0.000388756
0.000442642
0.000427544
0.000411468
0.00042286
0.000376619
0.000356372
0.000350078
0.000362136
0.000366725
0.000397185
0.000441416
0.000483836
0.000458233
0.000345123
0.000332696
0.000326608
0.000329027
0.000353687
0.000383006
0.000389969
0.000519619
0.000638102
0.000425851
0.000132346
0.0001342
0.000140885
0.000148362
0.000152266
0.000157638
0.000159673
0.000160572
0.000159267
0.000158047
0.000132966
0.000134969
0.000138613
0.000139885
0.000144617
0.000155088
0.000159943
0.000163112
0.000167608
0.000169348
0.000126188
0.000129329
0.000132117
0.00013045
0.000130589
0.000136641
0.000150646
0.000156914
0.000160483
0.000161957
0.000125707
0.000125895
0.000126585
0.000126629
0.000126554
0.000127502
0.000133572
0.000137221
0.000138418
0.000136849
0.000130385
0.000128326
0.000127178
0.000126619
0.000126401
0.000126606
0.000128292
0.000129995
0.000128494
0.000126357
0.000131805
0.000130702
0.000129716
0.000128647
0.000127586
0.00012689
0.000127129
0.000127913
0.000127649
0.000127032
0.00012874
0.000129089
0.000129164
0.000128776
0.000128349
0.000127676
0.000127293
0.000127429
0.000127293
0.000127005
0.00012284
0.000124047
0.00012621
0.000127431
0.000127847
0.000127592
0.000127259
0.000127149
0.000126082
0.000124747
0.00012148
0.000123963
0.00012555
0.000126786
0.000127316
0.000127182
0.000126884
0.000123817
0.000119809
0.000122548
0.000120202
0.000123369
0.000124457
0.000125059
0.000125344
0.000125339
0.000124628
0.000124741
0.000133705
0.000138082
0.000169194
0.000174086
0.000180134
0.000183096
0.000202826
0.000214369
0.000188197
0.000141101
0.000124484
0.000132407
0.000171043
0.000174879
0.000176837
0.000175815
0.000181385
0.000150632
0.000117189
0.000102342
0.000100644
0.000123202
0.000155661
0.000148154
0.000140643
0.000130853
0.000118012
0.000102589
9.61476e-05
9.11689e-05
9.11562e-05
0.000126383
0.000122231
0.000123627
0.000117873
0.00011017
0.000102253
9.72493e-05
9.25623e-05
8.88528e-05
8.84284e-05
0.000106677
0.00010092
0.000102387
0.000105395
0.000107807
0.000105982
0.000106221
0.000100782
9.24704e-05
8.80619e-05
8.97985e-05
0.00010264
0.000103963
0.000104753
0.00010636
0.000107928
0.00011086
0.000111267
0.000106111
9.68726e-05
8.84618e-05
0.000113923
0.000113247
0.000111142
0.000108778
0.000109091
0.000111384
0.000113982
0.000113129
0.000104016
9.85661e-05
0.000119008
0.000117467
0.000113609
0.000110806
0.000110873
0.000112355
0.000115633
0.00011496
0.000105297
0.000102064
0.00011982
0.000120792
0.000114677
0.000112387
0.000112468
0.000113976
0.000116345
0.00010815
0.000102554
0.000108824
0.000108659
0.000116475
0.000114065
0.000113134
0.000113687
0.000114875
0.000104808
0.000102584
0.000116995
0.000142482
0.000171245
0.000200941
0.000277466
0.000273087
0.000293224
0.000394172
0.00045619
0.000465816
0.00046154
0.000440533
0.000204831
0.000200132
0.000184063
0.000143944
0.000150809
0.000209476
0.000255129
0.000259724
0.000246349
0.000227846
0.000184406
0.000142443
0.000100778
9.30968e-05
9.59566e-05
0.000115618
0.00013585
0.000138072
0.000132266
0.00012632
0.000146246
0.000101668
8.45736e-05
8.15855e-05
8.26651e-05
8.88139e-05
9.65191e-05
9.8107e-05
9.48143e-05
8.8223e-05
0.000146404
0.000100692
8.58348e-05
8.31088e-05
8.36713e-05
8.73375e-05
8.86416e-05
8.83402e-05
8.46136e-05
7.73276e-05
0.000168202
0.00011063
8.84733e-05
8.48013e-05
8.53726e-05
9.17723e-05
9.50905e-05
9.49439e-05
8.97144e-05
7.8697e-05
0.000173491
0.000131356
9.09419e-05
8.58186e-05
8.65175e-05
9.40452e-05
9.89896e-05
9.9581e-05
9.63694e-05
8.54261e-05
0.000179159
0.000134733
9.34125e-05
8.76556e-05
8.92778e-05
0.000100513
0.000110795
0.000112969
0.000110218
9.9341e-05
0.000179386
0.000135377
9.47575e-05
8.81772e-05
8.96693e-05
0.00010096
0.000112897
0.000115768
0.0001143
0.000105982
0.000175445
0.000138713
9.50022e-05
8.72432e-05
8.86664e-05
9.77449e-05
0.000106725
0.000107874
0.000102215
9.62027e-05
0.000815485
0.000695331
0.000596517
0.000555121
0.00054244
0.000514123
0.000471767
0.000449087
0.000444902
0.000467837
0.000802905
0.000717887
0.000602004
0.00051561
0.000462869
0.00042601
0.000397919
0.000386337
0.000385462
0.000385611
0.000777602
0.000745207
0.000655553
0.000539614
0.00046495
0.000413199
0.000376438
0.000354919
0.000351827
0.00035148
0.000716238
0.000708762
0.000682011
0.000609731
0.000505364
0.000431542
0.000383178
0.000354033
0.000340532
0.000338821
0.000672541
0.000668995
0.000659017
0.000633734
0.000569367
0.000487118
0.000415849
0.000366679
0.000343814
0.00033753
0.000662483
0.000648998
0.000639333
0.000626229
0.000596736
0.000532206
0.000469742
0.000404515
0.00035947
0.000342849
0.000678452
0.000649124
0.000632103
0.000622222
0.000602934
0.000558274
0.000501712
0.000448689
0.000395587
0.000360763
0.000719583
0.000670066
0.000640355
0.000619557
0.000598978
0.000555308
0.000501611
0.000456294
0.000417131
0.00037945
0.000777721
0.000712061
0.000654757
0.000609619
0.000570277
0.0005252
0.000486143
0.000448173
0.000418485
0.000391626
0.000870268
0.000763371
0.000675363
0.000602712
0.000550504
0.000505973
0.000471195
0.000441363
0.000422927
0.000403152
0.000778699
0.000702145
0.000608922
0.000565701
0.000557586
0.00053867
0.000486181
0.000453678
0.000445296
0.000457785
0.000752616
0.000711058
0.000603154
0.000514065
0.000461866
0.000426769
0.000397094
0.000382903
0.000381722
0.000376828
0.000715685
0.000711257
0.000653479
0.000536378
0.000461395
0.000410073
0.000374193
0.000351565
0.000343927
0.000341677
0.000643287
0.000672336
0.000662968
0.000611835
0.00050416
0.000429976
0.000382353
0.000352892
0.000336907
0.00033356
0.000593422
0.000630588
0.000638047
0.00062674
0.000583687
0.000499529
0.000430651
0.000377915
0.000347082
0.000336633
0.000590056
0.000615296
0.00062346
0.000620229
0.000606983
0.000567848
0.000500559
0.000443701
0.000388916
0.000354233
0.000628012
0.000627056
0.000623983
0.000620328
0.000614491
0.000597872
0.000552446
0.000493141
0.000444914
0.000399339
0.000689484
0.000662561
0.000638396
0.000625953
0.000618092
0.000602039
0.00056487
0.000510435
0.000473907