/*--------------------------------*- C++ -*----------------------------------*\
  =========                 |
  \\      /  F ield         | OpenFOAM: The Open Source CFD Toolbox
   \\    /   O peration     | Website:  https://openfoam.org
    \\  /    A nd           | Version:  9
     \\/     M anipulation  |
\*---------------------------------------------------------------------------*/
FoamFile
{
    format      ascii;
    class       volScalarField;
    location    "79";
    object      f10.gas;
}
// * * * * * * * * * * * * * * * * * * * * * * * * * * * * * * * * * * * * * //

dimensions      [0 0 0 0 0 0 0];

internalField   nonuniform List<scalar> 
137980
(
0.0138659
0.0142453
0.0151619
0.0162643
0.0172846
0.0178852
0.0180368
0.0180815
0.0183508
0.0186887
0.013383
0.0137862
0.014629
0.0157996
0.0171736
0.0180849
0.0183279
0.0183533
0.0185326
0.0188596
0.0132107
0.0134834
0.0140826
0.015046
0.0162829
0.0177937
0.0185317
0.0186526
0.0186375
0.0185424
0.0129418
0.0131191
0.0135245
0.0142686
0.015222
0.0163578
0.0176721
0.0183625
0.0184612
0.0181013
0.0127118
0.0128085
0.0130666
0.0135557
0.0142533
0.0150891
0.0159962
0.0168685
0.0173721
0.0172244
0.0125227
0.012548
0.0127085
0.0129816
0.0134745
0.0140488
0.0146887
0.01529
0.0157276
0.0157881
0.012414
0.0123741
0.0124369
0.0126129
0.012859
0.0132726
0.0137047
0.0141351
0.0144934
0.0146741
0.0123936
0.0122995
0.0122981
0.0123914
0.012544
0.0127278
0.0130287
0.0133646
0.0136517
0.013854
0.0124782
0.0123277
0.0122775
0.0122986
0.0124064
0.0125559
0.012712
0.0129153
0.0131302
0.0133425
0.0127278
0.0125111
0.0124134
0.012389
0.0124195
0.0125164
0.0126957
0.0128849
0.0130524
0.0132717
0.0134783
0.0140787
0.0150045
0.0160668
0.0171549
0.0178164
0.0180587
0.0182578
0.0188315
0.019486
0.0131524
0.0137139
0.0145804
0.0158379
0.0172444
0.0180762
0.018327
0.018416
0.0188307
0.0193813
0.0129679
0.0134013
0.0141276
0.0151891
0.0166398
0.0181109
0.0186361
0.0187574
0.0189066
0.0192674
0.012678
0.0129843
0.0135534
0.014409
0.0155683
0.0170873
0.018374
0.018776
0.0188753
0.0188249
0.0124688
0.0126338
0.0130167
0.0136503
0.0145191
0.0156296
0.0169804
0.0180913
0.0183867
0.0182289
0.0122978
0.0123755
0.012561
0.0130131
0.0136123
0.0143897
0.0152976
0.0162269
0.0168538
0.0168582
0.0121936
0.0121897
0.0122687
0.0124936
0.0129134
0.0134272
0.0140371
0.0146624
0.0151803
0.0154097
0.0121855
0.0120911
0.0121276
0.0121914
0.012418
0.0127682
0.0131521
0.0135742
0.0139557
0.0142229
0.0122818
0.0121135
0.0120836
0.0121279
0.0121748
0.0123643
0.0126448
0.0129399
0.0131896
0.0134341
0.0125392
0.0122974
0.0121837
0.0121782
0.0122184
0.0122866
0.0124277
0.0126543
0.0128472
0.0131355
0.0134374
0.0140462
0.0149431
0.0160151
0.0171103
0.017854
0.0183638
0.0188929
0.0198641
0.0214214
0.0132438
0.0137815
0.0146536
0.0159705
0.0173525
0.0182573
0.0187054
0.0194486
0.0205032
0.0217423
0.0129552
0.0134755
0.0143134
0.0155644
0.0171812
0.0184875
0.0190491
0.0195484
0.0205993
0.0216947
0.0126686
0.0130439
0.0137437
0.0148336
0.0163705
0.0181
0.0191724
0.0196906
0.0204457
0.0211176
0.0123578
0.0126333
0.0131565
0.014019
0.0152519
0.0168995
0.0186388
0.0194884
0.0199789
0.0201663
0.0121499
0.0122483
0.0126321
0.0132468
0.0141581
0.0154021
0.0169117
0.0183989
0.0189872
0.0190937
0.0120229
0.0119928
0.0122021
0.0126105
0.0132401
0.01409
0.015158
0.0162709
0.0171059
0.0174473
0.011938
0.0118573
0.0118997
0.0121803
0.01256
0.0131168
0.0137951
0.0145271
0.0151658
0.0156115
0.0119197
0.0118149
0.0117961
0.0118899
0.0121751
0.0125014
0.0129294
0.0133836
0.0137491
0.014073
0.0120789
0.0118879
0.0118492
0.0118818
0.0119766
0.0122039
0.0125066
0.0128155
0.0130494
0.0133033
0.0136753
0.0141597
0.014894
0.0158571
0.016827
0.0176249
0.0182424
0.018467
0.0199934
0.0204927
0.0135635
0.0139758
0.0148
0.0159804
0.0173082
0.0183354
0.0190501
0.0197172
0.0207579
0.0216403
0.0130755
0.0136781
0.014661
0.0160462
0.0176331
0.0190077
0.0197486
0.0205409
0.0216153
0.0223674
0.0128431
0.0132747
0.0142238
0.0156666
0.0175162
0.0192997
0.020405
0.0211332
0.0221963
0.0228098
0.0124323
0.0127968
0.0136135
0.0149404
0.0168233
0.0189481
0.0205919
0.0215416
0.0223881
0.023137
0.0120965
0.0123532
0.0129632
0.0139839
0.0156508
0.0178841
0.0201118
0.0214542
0.0223666
0.0230826
0.011867
0.0119949
0.012388
0.0131455
0.0143369
0.0160818
0.0184113
0.0205149
0.0217515
0.0224796
0.0117188
0.0117082
0.0119638
0.0124607
0.013298
0.0145058
0.0159917
0.0177676
0.0193714
0.0204559
0.0116918
0.0116049
0.0116936
0.0120097
0.0125642
0.0133862
0.0143757
0.0153437
0.0160838
0.0168315
0.011907
0.0116759
0.011641
0.0118091
0.0121334
0.0126727
0.0134281
0.0140603
0.0144354
0.01439
0.0139645
0.0144413
0.0148298
0.0155186
0.016225
0.0170087
0.0177996
0.0187897
0.0207998
0.0203468
0.01361
0.0140456
0.014783
0.0157984
0.016953
0.0179385
0.0187558
0.0197207
0.0214449
0.0217556
0.0130903
0.0137935
0.0148673
0.0161826
0.0176583
0.018858
0.0196515
0.0205778
0.0221424
0.0230238
0.0129279
0.0135587
0.0147428
0.0163212
0.0180607
0.0195655
0.0205476
0.0214479
0.0229508
0.0238785
0.0125036
0.0131674
0.014367
0.0160765
0.0181522
0.0200198
0.0212629
0.0221763
0.0235469
0.024282
0.0121388
0.0126288
0.0137154
0.0154835
0.0177603
0.0200027
0.0216922
0.0227623
0.0237959
0.0245668
0.0118814
0.0121411
0.0129385
0.0145129
0.0168773
0.019485
0.0215744
0.0230121
0.0242179
0.0253646
0.0117412
0.0117836
0.0123227
0.0134593
0.0154628
0.0181385
0.0208287
0.0226211
0.0240223
0.0252071
0.011779
0.0116564
0.0118796
0.0126866
0.0141479
0.0161915
0.0186873
0.0209183
0.0224488
0.0235138
0.0120927
0.0117822
0.0117625
0.0121519
0.0131592
0.0148849
0.0169874
0.018541
0.0183421
0.0174758
0.0144824
0.0149504
0.0149589
0.0151949
0.0157491
0.0166848
0.0180289
0.0199244
0.0202912
0.0204936
0.0136786
0.0141705
0.0148184
0.0157004
0.0168096
0.0179643
0.0190911
0.0207424
0.0224138
0.0226518
0.0131074
0.0139517
0.0150601
0.0163911
0.01783
0.0190894
0.020158
0.0216153
0.0238014
0.024429
0.012957
0.0138101
0.0151395
0.0168092
0.0186095
0.0201419
0.0212913
0.0227058
0.0249937
0.026134
0.0126487
0.0135641
0.0150036
0.0169554
0.0191311
0.0209764
0.0223257
0.0237415
0.0261687
0.0275435
0.012398
0.0131439
0.0146069
0.01683
0.0193674
0.021549
0.0231622
0.0247382
0.0269679
0.0280389
0.0122924
0.012638
0.014035
0.0163719
0.0192739
0.0219363
0.0238356
0.0255375
0.0276517
0.0286601
0.012598
0.0123516
0.0133574
0.0156686
0.0188074
0.0220324
0.0245676
0.02681
0.0290174
0.0305663
0.0133431
0.0125806
0.0127812
0.0147092
0.017806
0.0215316
0.0243453
0.0267348
0.0290288
0.0316182
0.0137146
0.0128714
0.0126602
0.0137873
0.0164555
0.0202115
0.0232361
0.0255471
0.0267919
0.0261952
0.0151406
0.0151734
0.0151429
0.0153273
0.0159267
0.0173756
0.0213229
0.0226109
0.02045
0.0241317
0.0138456
0.0144533
0.0151352
0.0161639
0.0175924
0.0198186
0.0235922
0.0245271
0.0223374
0.0249401
0.0134005
0.0144886
0.0158075
0.0174338
0.0193546
0.0219131
0.0249758
0.0261093
0.0243963
0.0260414
0.0133608
0.0146427
0.0164095
0.018521
0.0208307
0.0235518
0.026172
0.0273949
0.0263709
0.0271385
0.0133774
0.014746
0.016852
0.0193949
0.0220304
0.0248435
0.0271719
0.0284462
0.0282927
0.0284447
0.0135221
0.0147189
0.0170704
0.0200937
0.0232178
0.0258838
0.0279529
0.0294853
0.029875
0.0296276
0.0139026
0.0145564
0.0171397
0.0209026
0.0243185
0.0269683
0.0289337
0.030719
0.0314033
0.0311157
0.0149082
0.0144779
0.0169332
0.021476
0.0251826
0.0279386
0.0302053
0.0318385
0.0324274
0.0322576
0.0157773
0.0151162
0.0166249
0.0215678
0.0262686
0.0292428
0.031485
0.0334475
0.034493
0.0349191
0.0163865
0.015616
0.0165967
0.0211445
0.0262957
0.0302154
0.0334356
0.0359103
0.0371858
0.0367121
0.0156851
0.0155341
0.0156238
0.0162361
0.0172441
0.0213094
0.0215375
0.0209098
0.0272044
0.0391621
0.0145662
0.0155157
0.0169635
0.0191915
0.0220431
0.0238462
0.0237086
0.0235713
0.0313576
0.0388599
0.0149286
0.0169621
0.0196324
0.0224152
0.0245827
0.0254888
0.0255439
0.0262451
0.0348541
0.038161
0.0154738
0.0184602
0.0217475
0.0244535
0.0261675
0.0269802
0.0273735
0.0291354
0.0356205
0.0364845
0.0161682
0.0196344
0.0232389
0.0259276
0.0274864
0.028345
0.0289684
0.0309299
0.0357576
0.0362653
0.0170143
0.0203663
0.0242556
0.0270987
0.0285555
0.0294945
0.0302676
0.0319853
0.0359919
0.0360797
0.0177236
0.0206537
0.0248898
0.0278377
0.0293571
0.0304796
0.0311885
0.0324147
0.0358966
0.035867
0.0182969
0.020508
0.0251516
0.028402
0.0300865
0.0313078
0.0320257
0.0328039
0.0356749
0.0354965
0.0193493
0.0206569
0.0251458
0.0285823
0.030487
0.0318789
0.0326629
0.033127
0.0351667
0.0351068
0.0215027
0.0214098
0.0252654
0.029062
0.0312043
0.0326199
0.0335062
0.0338828
0.0354072
0.0352994
0.016357
0.0164757
0.0168451
0.0170714
0.0181988
0.0208084
0.021871
0.0281982
0.0419457
0.0406919
0.0167534
0.0180232
0.0190815
0.0199928
0.0222214
0.0236767
0.0256049
0.0363923
0.0403236
0.0338273
0.0188391
0.0206893
0.0221554
0.0232948
0.0251218
0.0268652
0.0318629
0.0369188
0.036287
0.0268231
0.0205312
0.022883
0.0244239
0.0256786
0.0276214
0.0303133
0.0349878
0.0361819
0.0302788
0.0232212
0.0221743
0.0245361
0.0260907
0.0275222
0.029748
0.0330693
0.0351414
0.0345094
0.0266575
0.021454
0.0234123
0.0258348
0.0274488
0.0290804
0.0315748
0.0342768
0.0350334
0.0328279
0.0246181
0.0207398
0.0243674
0.0266848
0.0283158
0.0301526
0.032779
0.0346458
0.0347686
0.0316394
0.024129
0.0208704
0.0250698
0.0272555
0.0291588
0.0311179
0.0335506
0.034768
0.0345021
0.0310885
0.0243295
0.0212215
0.0252333
0.0273787
0.0294265
0.0314558
0.0337792
0.034742
0.0343738
0.0312255
0.0248784
0.0219286
0.0256836
0.027766
0.0298842
0.0319751
0.0339954
0.0347609
0.0344232
0.0319336
0.0263583
0.0228872
0.0183045
0.0184522
0.0180754
0.0188244
0.0214672
0.0243858
0.0337905
0.0408479
0.0387804
0.0368062
0.0186168
0.0196157
0.0201538
0.0221046
0.0252871
0.030576
0.0383659
0.0397118
0.0356773
0.032999
0.0203555
0.0218575
0.0230046
0.0255341
0.0297838
0.0361615
0.0381485
0.0366092
0.0297991
0.0272813
0.0224823
0.0239586
0.0257368
0.0289133
0.0344336
0.0370631
0.0369981
0.0312487
0.0260029
0.0237516
0.0242796
0.0257672
0.0281549
0.0320802
0.0361627
0.0367621
0.0347159
0.0273179
0.0235406
0.0215497
0.025823
0.0274262
0.0301542
0.0341815
0.036235
0.0361344
0.0315597
0.0249209
0.0220967
0.020174
0.0266966
0.0285283
0.0315044
0.0350442
0.0360974
0.0349993
0.0295255
0.0236597
0.0212161
0.019486
0.0276094
0.0295375
0.0325187
0.0352549
0.0357912
0.034025
0.0279823
0.02292
0.0207409
0.0189831
0.0279078
0.0297358
0.0326459
0.0351479
0.035493
0.0335639
0.027881
0.0228905
0.020471
0.0189777
0.0283588
0.0302596
0.032994
0.035116
0.0353141
0.0337385
0.0286507
0.0233064
0.0205746
0.0189735
0.0189113
0.0192571
0.019334
0.020946
0.0243416
0.0280328
0.0358449
0.0371822
0.0358383
0.0356423
0.0191651
0.0199617
0.02078
0.0234491
0.0274471
0.0322408
0.0371514
0.037363
0.0360446
0.0356427
0.0202412
0.0215201
0.0230123
0.026162
0.0305856
0.0358473
0.037659
0.0370238
0.0353362
0.0344039
0.0222838
0.0234786
0.0254134
0.0289781
0.034467
0.0371962
0.0375448
0.036041
0.0336361
0.0310296
0.0242309
0.0253434
0.0278958
0.0320919
0.0363877
0.0374525
0.0371177
0.0346168
0.0312718
0.0283765
0.0259476
0.0272979
0.0301642
0.0347395
0.0370821
0.0373493
0.0360074
0.0323049
0.0289385
0.0259076
0.0270842
0.0286883
0.0319805
0.0359956
0.0371896
0.0370851
0.0349796
0.0310582
0.0279547
0.0251648
0.0279875
0.0299466
0.0334466
0.036528
0.0371651
0.0366275
0.0338555
0.0299969
0.0269999
0.0238819
0.0285689
0.030264
0.0337953
0.0366172
0.0371208
0.0364401
0.0336162
0.0298708
0.0267158
0.0236049
0.0290952
0.0310039
0.0343792
0.0367473
0.0371068
0.0364685
0.0342045
0.0302376
0.0263172
0.0227791
0.020893
0.0212879
0.0219959
0.0237131
0.0252595
0.0279715
0.0302388
0.0292978
0.0292903
0.0295346
0.0215303
0.022213
0.0234361
0.0255488
0.0273566
0.0295098
0.03075
0.0297619
0.0294752
0.0297631
0.0236155
0.0240741
0.0253753
0.027437
0.0292449
0.0305564
0.0309571
0.029753
0.0294901
0.0302608
0.0267384
0.0265122
0.027535
0.0293235
0.0307118
0.0311509
0.0309045
0.0297517
0.0296779
0.0309518
0.0296089
0.0293131
0.0298712
0.031078
0.0316921
0.0315524
0.0309029
0.0299833
0.0302361
0.0320596
0.0311534
0.0315679
0.0320908
0.0326209
0.0327155
0.0320493
0.0312287
0.0306822
0.0316197
0.0343061
0.0319561
0.0326088
0.0336638
0.0341708
0.0338459
0.0330653
0.0321675
0.0323183
0.0332905
0.0355213
0.0328894
0.0333972
0.0346448
0.0354238
0.0352595
0.0344833
0.0339408
0.0339591
0.0351378
0.0359848
0.0330721
0.0336309
0.0349126
0.0360434
0.036299
0.0361626
0.0358388
0.0360907
0.0363052
0.0367316
0.0333423
0.0340491
0.0352312
0.036375
0.0368566
0.0370839
0.0372355
0.0370217
0.0378096
0.0358985
0.0317312
0.0331137
0.033521
0.0339145
0.0339295
0.0339901
0.0328578
0.0316551
0.0313029
0.0306868
0.0320628
0.0325312
0.0330878
0.0338372
0.0341127
0.0346027
0.0343701
0.0334392
0.0325464
0.0318483
0.0325095
0.0326138
0.0330141
0.0334778
0.0340701
0.0348317
0.0351602
0.0348679
0.0339518
0.03297
0.0329062
0.0328564
0.0330581
0.0333083
0.0338415
0.0345823
0.0354028
0.0357618
0.0354567
0.0346599
0.0327404
0.0325659
0.0326435
0.0329562
0.0335246
0.0342262
0.0350318
0.0363662
0.0366351
0.0366125
0.0314258
0.0315786
0.0321018
0.0326853
0.0331408
0.0337173
0.0345285
0.036167
0.0375168
0.037932
0.0303935
0.0309594
0.0319026
0.0325047
0.0329609
0.0334233
0.0340978
0.0355156
0.0381411
0.0389022
0.029679
0.0306036
0.031647
0.032353
0.0328701
0.0333935
0.0338707
0.0349778
0.0380622
0.0394626
0.0294836
0.0306102
0.0316822
0.0325091
0.033179
0.0341066
0.0342591
0.0349411
0.0376068
0.0403912
0.0297346
0.0311629
0.0322522
0.0330743
0.0347618
0.0354924
0.0352099
0.0348094
0.0380656
0.0392099
0.0295064
0.0299532
0.0298622
0.0299301
0.0302654
0.031089
0.0319115
0.0322341
0.0322216
0.0323169
0.0283902
0.0283434
0.028487
0.0288923
0.0294264
0.0301607
0.0307748
0.0315188
0.0319132
0.0326486
0.0275688
0.0275361
0.027915
0.0285099
0.0290994
0.0297183
0.0302831
0.0309183
0.0314842
0.0326493
0.0266673
0.0270514
0.0277624
0.0284476
0.0290251
0.0295776
0.0299186
0.0304297
0.0310847
0.0324297
0.0262468
0.0270109
0.0279168
0.0286323
0.0293447
0.0296395
0.0297603
0.0300102
0.0306346
0.0322674
0.0261793
0.0274433
0.0284366
0.0294429
0.0300616
0.0301029
0.0298515
0.0298691
0.0303776
0.03261
0.02691
0.0283953
0.0294932
0.0305408
0.0307252
0.0305542
0.029936
0.0297848
0.0302385
0.0327468
0.0284377
0.0294923
0.0307593
0.0315531
0.0314386
0.0308548
0.0298467
0.0295691
0.0300458
0.0325984
0.0289285
0.0299899
0.0316696
0.0322378
0.0319254
0.03089
0.029626
0.0291596
0.030223
0.033568
0.0286469
0.0307839
0.0326546
0.0329052
0.0321461
0.0307084
0.0296902
0.029883
0.0319
0.032899
0.0308304
0.0304005
0.0299693
0.0296304
0.0293127
0.0288854
0.0286283
0.0281187
0.0278443
0.0269199
0.0308925
0.030388
0.0298674
0.0294563
0.0289473
0.0285372
0.02818
0.0278605
0.0271301
0.0271749
0.0307624
0.03014
0.0296259
0.029177
0.0286103
0.0281091
0.0277484
0.0274001
0.0267119
0.026197
0.0305381
0.0300143
0.0295066
0.0289897
0.0284407
0.0279533
0.0275769
0.0271414
0.0263875
0.0256366
0.0302305
0.0298111
0.0293619
0.0289196
0.0284243
0.0279448
0.0275246
0.0269278
0.0253905
0.0234757
0.0299032
0.029652
0.0292578
0.028919
0.0285614
0.0280386
0.0273374
0.0254194
0.0226303
0.0207504
0.0296554
0.0294969
0.0291374
0.0289706
0.0286094
0.0278418
0.0259846
0.0231076
0.0208914
0.0195572
0.0294331
0.0293387
0.0288817
0.0289304
0.0285376
0.0269582
0.0244177
0.0220078
0.0202577
0.0191752
0.029108
0.0290973
0.0285063
0.028709
0.0281794
0.0260926
0.0236054
0.0216484
0.0205652
0.0199467
0.0288249
0.0287947
0.0277363
0.0280739
0.0274584
0.0255493
0.0239061
0.0224665
0.0213722
0.0203148
0.0308406
0.0297737
0.0285157
0.0273051
0.0261741
0.0252996
0.023463
0.0232193
0.0252454
0.0248387
0.0309276
0.0298502
0.0284443
0.0269937
0.0256734
0.0243197
0.0228061
0.0230415
0.024125
0.0239444
0.0301501
0.029066
0.0276246
0.0261984
0.024828
0.0235374
0.0223502
0.0222253
0.0235142
0.0237739
0.0297639
0.0287228
0.0272375
0.0257158
0.0242877
0.0229613
0.0219471
0.0217375
0.0225381
0.0231032
0.029072
0.0279998
0.0265319
0.0250339
0.0236036
0.0224039
0.0216372
0.0213846
0.0216959
0.0218622
0.0285162
0.0275376
0.026082
0.0245621
0.0231154
0.0220816
0.0214152
0.0210824
0.0210304
0.0208399
0.0279309
0.0268522
0.0254327
0.0240154
0.0228463
0.0219501
0.021258
0.0207804
0.0204416
0.0199178
0.0273384
0.0262214
0.0248304
0.0237358
0.0227849
0.0219306
0.0212054
0.0205943
0.0200529
0.0194692
0.0267551
0.0254037
0.0241213
0.0234696
0.0228133
0.0221332
0.0214059
0.0207227
0.0200493
0.0193832
0.0261265
0.0246579
0.0233393
0.0229534
0.0227589
0.0224397
0.0219043
0.0211232
0.0202477
0.0192732
0.0288273
0.0292543
0.0287873
0.0282656
0.0280378
0.0287181
0.0298671
0.0306095
0.0302518
0.0267706
0.0284776
0.0291795
0.0288731
0.0281834
0.0272765
0.0277644
0.0286127
0.0300434
0.0302987
0.0288559
0.0280111
0.0289113
0.0286927
0.028008
0.026765
0.0268638
0.0275505
0.0290184
0.0297995
0.0292874
0.0278676
0.0288276
0.0285891
0.027682
0.0262318
0.0259572
0.0265889
0.0279414
0.0290587
0.0288814
0.0278031
0.0286689
0.0282771
0.0271021
0.0255738
0.0249304
0.0256126
0.0271989
0.0286208
0.028593
0.0282031
0.0285299
0.0277973
0.0262204
0.0246856
0.0239556
0.0246593
0.0265685
0.0284411
0.0282281
0.0283904
0.0280194
0.0267822
0.0251474
0.0237006
0.0229769
0.0236922
0.0260389
0.0284702
0.0277731
0.0281377
0.0271495
0.025666
0.0240724
0.0226167
0.0219298
0.0225501
0.0249884
0.028245
0.0286846
0.0272905
0.0258426
0.0245835
0.0229361
0.0213698
0.0207835
0.021213
0.0228107
0.02657
0.0284066
0.0260011
0.0251687
0.0236062
0.0216769
0.0200794
0.0197178
0.0200368
0.0212732
0.0245652
0.0249431
0.0266627
0.0294949
0.031239
0.0325387
0.0328501
0.0321764
0.0288729
0.0273314
0.0263792
0.0248385
0.0269694
0.0271974
0.0287509
0.0313118
0.0332839
0.0338476
0.0322037
0.0273354
0.0254941
0.0242047
0.0253394
0.0262351
0.027136
0.028543
0.0307269
0.0341144
0.0349003
0.0313038
0.0263487
0.0245411
0.024626
0.0254299
0.0265113
0.0275952
0.0288555
0.0310202
0.0351903
0.035729
0.0289985
0.0256732
0.0242747
0.0251668
0.0263546
0.0273326
0.0281116
0.0296263
0.031791
0.036042
0.0336792
0.0276561
0.0241187
0.0252985
0.0269785
0.02771
0.0278942
0.0284927
0.0302389
0.0346041
0.0351982
0.0305854
0.0243061
0.0260766
0.0274806
0.0279044
0.0278163
0.027938
0.0289595
0.0321908
0.0352058
0.031179
0.0253406
0.0272204
0.0281582
0.028064
0.0276662
0.0272386
0.0278484
0.0299183
0.0345892
0.0328264
0.0270069
0.0284746
0.0284226
0.0278927
0.0269684
0.0260863
0.0265141
0.0280743
0.0326744
0.0336317
0.028719
0.0289376
0.0283298
0.0267268
0.0253837
0.0242609
0.0246248
0.0258221
0.0285087
0.027572
0.0229014
0.0201003
0.0189691
0.0190874
0.0195235
0.0203682
0.0219766
0.0226894
0.0230559
0.0240537
0.022309
0.0202822
0.0203835
0.0226111
0.0245089
0.0252598
0.0254281
0.0251417
0.0246921
0.024356
0.0214668
0.0213658
0.0243024
0.0259047
0.0263677
0.0263859
0.0257855
0.0252484
0.0249856
0.0249354
0.022449
0.0244038
0.0262625
0.0267496
0.026783
0.026306
0.0255283
0.0249
0.0247138
0.0244675
0.0242598
0.0260877
0.0268165
0.0269459
0.0267326
0.0260188
0.0250844
0.0245925
0.0238646
0.0225111
0.0255704
0.0269031
0.0272621
0.027105
0.0265443
0.0255462
0.0244714
0.0239006
0.0230023
0.0221142
0.0259746
0.0271618
0.0278437
0.0276137
0.0267518
0.0256845
0.0244859
0.0234918
0.0223944
0.0221872
0.025752
0.0268406
0.0280829
0.028435
0.0275958
0.026317
0.0250154
0.0238569
0.0222481
0.02199
0.024844
0.0258692
0.0274121
0.0284912
0.0287139
0.0281097
0.0268864
0.0255543
0.0226064
0.023156
0.0241988
0.0249435
0.0261377
0.0275899
0.0285681
0.0289839
0.0289108
0.028262
0.0243143
0.0229648
0.0185006
0.0180656
0.0176796
0.0173435
0.0176565
0.0187629
0.0199812
0.0210873
0.0219296
0.0218102
0.0187188
0.0181906
0.0179058
0.0178073
0.0181501
0.0192613
0.0205378
0.021173
0.0213364
0.0214642
0.0188127
0.0184282
0.018078
0.0180978
0.0184884
0.0194999
0.0208814
0.0214709
0.0217708
0.0220946
0.0188284
0.0186528
0.0184148
0.0184097
0.0188048
0.0197589
0.0211185
0.0216449
0.0218514
0.0222525
0.0187585
0.0186599
0.0186302
0.0187136
0.0190363
0.0198246
0.0211594
0.0216479
0.021779
0.0220911
0.0185333
0.0185963
0.0186641
0.0188849
0.019255
0.0198079
0.0210661
0.0215876
0.021573
0.0218713
0.018483
0.018498
0.0187271
0.0190896
0.0194464
0.0198215
0.0207886
0.0214951
0.0214399
0.022261
0.0186136
0.0186272
0.018837
0.0192125
0.0196937
0.0199794
0.0203893
0.0211251
0.0211656
0.0221249
0.0184048
0.0185108
0.0188651
0.0195706
0.0201482
0.0204315
0.0205501
0.0208847
0.0208235
0.0213304
0.0187777
0.0189477
0.0198772
0.0212927
0.0222229
0.022703
0.0225876
0.0220564
0.0218091
0.0214975
0.0184429
0.0184503
0.017938
0.0171879
0.0168366
0.0167002
0.0167145
0.016868
0.0167202
0.0163478
0.0180986
0.0184404
0.0179367
0.017419
0.017167
0.0167185
0.0161999
0.0160333
0.015381
0.0150983
0.0176856
0.0181089
0.0176692
0.0170561
0.0168502
0.0166487
0.0157359
0.015566
0.015167
0.0150453
0.016357
0.0170901
0.017256
0.0166638
0.0162649
0.0162797
0.0157715
0.0155738
0.0151748
0.0151405
0.0163471
0.0158944
0.0162025
0.016384
0.0161708
0.0161406
0.0160595
0.0157121
0.0152647
0.0153518
0.0163744
0.0156749
0.0155779
0.0155941
0.0160171
0.0160494
0.0161124
0.0159683
0.0155741
0.0154828
0.0163031
0.0156452
0.0155796
0.0155558
0.0153091
0.0151866
0.0152226
0.01582
0.0156459
0.0155294
0.016139
0.015503
0.0150813
0.0147531
0.0146695
0.0145157
0.0148113
0.0155322
0.0153827
0.01533
0.0153794
0.0149665
0.0148104
0.0147786
0.0148776
0.0147896
0.0149182
0.0153908
0.0157825
0.0156765
0.0146657
0.0145402
0.0144758
0.0145554
0.0148823
0.0152255
0.0149895
0.015824
0.0162561
0.0153998
0.0102427
0.0102406
0.0102649
0.0102453
0.0102367
0.010256
0.0102808
0.0102584
0.010193
0.0101424
0.0102228
0.0102509
0.0102608
0.0102356
0.0102154
0.0102614
0.0102996
0.0103091
0.0103671
0.0103643
0.0101418
0.0101734
0.0101932
0.0101738
0.010152
0.0101383
0.0102481
0.0103037
0.0103224
0.0103322
0.0100964
0.0100973
0.0100999
0.0101041
0.0101018
0.0101192
0.0101756
0.0101886
0.0102339
0.0102049
0.0101394
0.0101057
0.010091
0.0100791
0.0100771
0.010084
0.0101375
0.0101636
0.0101482
0.010163
0.010263
0.0102222
0.0101737
0.0101415
0.0101004
0.0100859
0.0100925
0.0101121
0.0101279
0.0101463
0.0102884
0.0102452
0.0102114
0.0101828
0.0101621
0.0101218
0.0101002
0.0101053
0.0101162
0.0101516
0.0100765
0.0101738
0.0101947
0.0101826
0.0101697
0.0101407
0.0101196
0.01012
0.0101267
0.0101286
0.00997059
0.0101654
0.0101799
0.0101757
0.0101644
0.0101386
0.0101269
0.0101104
0.0100679
0.01014
0.00991005
0.01011
0.0101336
0.0101376
0.0101386
0.0101287
0.010099
0.0100736
0.0100752
0.0101109
0.00931482
0.00927455
0.00933668
0.00941171
0.00953542
0.00957606
0.00965874
0.00979943
0.00979505
0.00983559
0.00942945
0.00933797
0.00934636
0.00938412
0.00949755
0.00961493
0.00986601
0.00986044
0.00986996
0.00996761
0.00988188
0.00969845
0.00960899
0.00958277
0.00974505
0.00998201
0.009954
0.00991666
0.00994468
0.00999602
0.0101503
0.0101837
0.0101537
0.0100994
0.010086
0.0100791
0.0100187
0.00997578
0.00997157
0.00997927
0.00978497
0.0099441
0.0101344
0.0102367
0.0102924
0.0102816
0.0100715
0.00997731
0.00997356
0.00995134
0.010092
0.0100949
0.0101315
0.0102226
0.0103051
0.0103656
0.0103617
0.0101176
0.00995823
0.00996573
0.0103105
0.0103402
0.0103172
0.0103066
0.0103253
0.0103784
0.0104411
0.0104157
0.0101598
0.0101582
0.0102547
0.0102998
0.0103026
0.0103103
0.0103399
0.0103892
0.0104954
0.0104704
0.0101993
0.0102077
0.010346
0.0103827
0.0103202
0.0103262
0.0103596
0.0104409
0.0105489
0.0101974
0.0101837
0.0101478
0.0101075
0.0104003
0.0103749
0.0103872
0.0104391
0.0105274
0.0101433
0.0101051
0.010065
0.0099059
0.00944213
0.00945786
0.00976209
0.00974778
0.00981276
0.0100575
0.0101655
0.0101497
0.0100798
0.00989595
0.0098131
0.0098841
0.00990664
0.00983174
0.00994733
0.010151
0.0102129
0.0101473
0.010007
0.00980571
0.01
0.00999874
0.00995254
0.0100138
0.0101764
0.0102335
0.0102417
0.0101332
0.00999508
0.00982299
0.0102136
0.0101002
0.0100692
0.0101235
0.0102513
0.0102828
0.0102721
0.0101907
0.0100437
0.00985951
0.0103915
0.0102353
0.0101911
0.0101861
0.0102557
0.0102826
0.0102825
0.0102441
0.0100936
0.00986712
0.0105688
0.0103443
0.0102804
0.0102529
0.0102532
0.0102705
0.0102537
0.0102221
0.0101426
0.0100127
0.0106805
0.0105452
0.0103425
0.0102984
0.010291
0.0102977
0.0102818
0.0103036
0.0103332
0.0102597
0.0108391
0.0105421
0.0103607
0.0103042
0.0102921
0.0103543
0.0104662
0.010536
0.0105215
0.0103328
0.0107792
0.0104591
0.0102877
0.0102457
0.0102783
0.0104271
0.0105197
0.010545
0.0104396
0.0102524
0.0105443
0.0102434
0.0101465
0.010145
0.0102248
0.0103482
0.0103905
0.0103069
0.0100825
0.00998166
0.0169502
0.0173176
0.0176712
0.0178201
0.0179178
0.0179595
0.0179998
0.0180169
0.0180674
0.0182051
0.0169648
0.0172216
0.0174894
0.0177619
0.0179076
0.0179692
0.017995
0.0180222
0.0180512
0.0181049
0.0167719
0.0171249
0.0174506
0.0176867
0.0178825
0.0179736
0.0180028
0.0180178
0.0180518
0.0181091
0.0166179
0.0169689
0.0173428
0.0176734
0.0178658
0.0179873
0.0180455
0.0180512
0.01807
0.0181139
0.0165003
0.016847
0.0172209
0.0175901
0.0178762
0.0180189
0.0180777
0.0181214
0.018148
0.0181547
0.0165515
0.0168112
0.0172178
0.0175458
0.0178573
0.0180581
0.0181533
0.0181828
0.0182141
0.0182176
0.0167367
0.01692
0.017274
0.0176126
0.0179274
0.0181744
0.0182685
0.0182823
0.0182859
0.0182968
0.0170435
0.0171433
0.0174191
0.017776
0.0180992
0.0183349
0.0184284
0.0184217
0.0183919
0.018371
0.0173378
0.0174344
0.0177344
0.0180483
0.0183007
0.0184693
0.0185367
0.0185202
0.018471
0.0184315
0.0175609
0.0176632
0.0179928
0.0183033
0.0184706
0.018568
0.0185714
0.0185476
0.0184668
0.0184422
0.0165063
0.0168699
0.0172096
0.0173902
0.0175158
0.0176389
0.0177295
0.0178579
0.0179157
0.0180579
0.0165436
0.0168199
0.0170505
0.0173553
0.017553
0.017664
0.0177364
0.0178109
0.0178812
0.0179795
0.016399
0.0167845
0.0170794
0.0173096
0.0175252
0.017675
0.0177518
0.0178107
0.0178498
0.0179425
0.0163046
0.0166489
0.0170332
0.0173418
0.0175648
0.0177019
0.0178042
0.0178567
0.0178863
0.017964
0.0162061
0.0165664
0.016942
0.0173024
0.017612
0.0178165
0.0178885
0.0179292
0.0179755
0.0180285
0.0162967
0.0165472
0.016969
0.017333
0.0176469
0.0179008
0.0180392
0.0180842
0.0181036
0.0181461
0.0165012
0.0166827
0.0170694
0.017462
0.0177858
0.0180253
0.0181816
0.0182462
0.0182626
0.0182718
0.0167994
0.0169133
0.0171746
0.0175491
0.017919
0.0181952
0.0183625
0.0184169
0.0184014
0.0183742
0.0171144
0.0171853
0.0173559
0.0176871
0.018021
0.0182891
0.0184451
0.0184841
0.0184682
0.0184261
0.0173292
0.0173583
0.0174792
0.0177677
0.0180608
0.0182872
0.0183994
0.0184528
0.0184287
0.0184087
0.0160328
0.0163743
0.0167149
0.016902
0.0170598
0.0172436
0.0174182
0.0176122
0.0177576
0.017867
0.0160716
0.0163555
0.0166206
0.0169465
0.0171777
0.0173148
0.0174408
0.0175654
0.0176583
0.017806
0.0160442
0.01637
0.01664
0.0169015
0.0171718
0.0173786
0.0174998
0.0175911
0.0176555
0.0177956
0.0159773
0.0163713
0.0166934
0.0169858
0.0172569
0.0174528
0.0175723
0.0176777
0.0177311
0.0178347
0.0159371
0.0163152
0.0167565
0.0171127
0.0173907
0.0176254
0.0177707
0.0178184
0.0178631
0.0179509
0.016064
0.0163469
0.0168182
0.0172499
0.0175795
0.0178134
0.0179917
0.018081
0.0181059
0.0181371
0.0162763
0.0165083
0.0169636
0.0174224
0.0177954
0.0180456
0.0182081
0.0182892
0.0183117
0.0183088
0.0165612
0.0167536
0.0170931
0.0174794
0.0178697
0.0181975
0.0183895
0.0184707
0.0184743
0.0184533
0.0169001
0.0170125
0.0171937
0.0174781
0.0178314
0.018186
0.0184138
0.0184991
0.0184974
0.0184794
0.0172382
0.0172312
0.0172599
0.0173672
0.0176426
0.0179608
0.0182173
0.0183492
0.0183802
0.0183714
0.015505
0.0158932
0.0161929
0.0164092
0.0166063
0.0168085
0.0170691
0.0172818
0.0176046
0.0177122
0.0155753
0.0158883
0.0161958
0.0164978
0.0167527
0.0169439
0.0171333
0.0172955
0.017467
0.0176184
0.0155982
0.0159314
0.0162503
0.0165692
0.0168433
0.0170583
0.0172418
0.0173715
0.0174844
0.0176406
0.0156554
0.0160024
0.0163328
0.0166608
0.0170034
0.0172396
0.0173978
0.0175176
0.0175992
0.017725
0.0156865
0.0161191
0.0165257
0.0168907
0.0172091
0.0175021
0.0176966
0.0177912
0.0178379
0.017923
0.0158662
0.0162361
0.016762
0.0172187
0.0175656
0.0178028
0.0179965
0.0180996
0.0181413
0.0181685
0.0161072
0.0164544
0.0169808
0.017455
0.0178474
0.0181109
0.0182745
0.0183783
0.0184223
0.0184166
0.0163717
0.01668
0.0170796
0.0174886
0.0178895
0.018228
0.0184468
0.0185484
0.0185792
0.0185728
0.0166919
0.0168707
0.0170604
0.0173293
0.0176683
0.0180351
0.0183277
0.0184665
0.0184866
0.0184821
0.0171637
0.0171485
0.0171034
0.0171289
0.0172573
0.0175643
0.0178473
0.0180665
0.0182081
0.0182344
0.0150143
0.0153773
0.0156613
0.0159012
0.0161365
0.0163906
0.0167113
0.0169691
0.0173751
0.0175104
0.015109
0.0154343
0.0157497
0.0160527
0.0163466
0.0165936
0.0168331
0.017027
0.017257
0.0174502
0.0151696
0.01559
0.0159204
0.0162395
0.016518
0.0167611
0.0169931
0.0171661
0.0173182
0.0174937
0.0153241
0.0156538
0.0161243
0.0165396
0.0168257
0.017085
0.0172634
0.0173784
0.0174748
0.0176206
0.0154827
0.0158924
0.0163102
0.0167671
0.0171341
0.0174439
0.0176609
0.0177764
0.01784
0.0179157
0.0156981
0.0161558
0.0166938
0.0171827
0.0175395
0.0177966
0.0179984
0.0181349
0.0182128
0.0182506
0.0159905
0.0164676
0.0170245
0.0175235
0.017922
0.0181892
0.0183459
0.0184438
0.0185002
0.0185071
0.0162703
0.016688
0.0170927
0.0175091
0.0178964
0.0182285
0.0184422
0.0185481
0.0185888
0.0186043
0.0165624
0.0167764
0.0169511
0.0171422
0.0174663
0.0178262
0.0181306
0.0183356
0.018392
0.018419
0.017105
0.0170927
0.0169892
0.0169291
0.0169659
0.017132
0.0174155
0.0176071
0.0178037
0.0179063
0.0145406
0.0148497
0.0151428
0.0153927
0.0156992
0.0159771
0.0163545
0.0166896
0.01709
0.0172963
0.0146506
0.014986
0.0153256
0.0156205
0.0159516
0.0162421
0.0165374
0.0167789
0.017048
0.0172703
0.0148442
0.0152367
0.0155525
0.0159253
0.0162419
0.0165089
0.0167664
0.0169666
0.0171488
0.0173481
0.015012
0.0154455
0.016002
0.0162905
0.016625
0.0169189
0.0170971
0.0172395
0.0173858
0.0175675
0.0152806
0.015695
0.0161778
0.0167399
0.0171452
0.0174013
0.0176092
0.017737
0.0178211
0.0179143
0.0155781
0.0160825
0.0166404
0.0171495
0.0175154
0.0177878
0.017995
0.0181463
0.0182404
0.0182945
0.0159195
0.0165011