/*--------------------------------*- C++ -*----------------------------------*\
  =========                 |
  \\      /  F ield         | OpenFOAM: The Open Source CFD Toolbox
   \\    /   O peration     | Website:  https://openfoam.org
    \\  /    A nd           | Version:  9
     \\/     M anipulation  |
\*---------------------------------------------------------------------------*/
FoamFile
{
    format      ascii;
    class       volScalarField;
    location    "79";
    object      f12.gas;
}
// * * * * * * * * * * * * * * * * * * * * * * * * * * * * * * * * * * * * * //

dimensions      [0 0 0 0 0 0 0];

internalField   nonuniform List<scalar> 
137980
(
0.0148995
0.0153583
0.0164345
0.0177398
0.0189584
0.0196653
0.0198434
0.0198921
0.0201857
0.020563
0.0143636
0.0148336
0.015807
0.0171616
0.0187945
0.019876
0.0201551
0.0201829
0.0203713
0.0207241
0.0141816
0.0145017
0.0151711
0.0162861
0.0177224
0.019491
0.0203543
0.0204967
0.0204512
0.0202959
0.0138774
0.0140835
0.0145359
0.0153831
0.0164761
0.0177915
0.0193124
0.0201173
0.0202265
0.0197782
0.0136164
0.0137233
0.0140155
0.0145602
0.0153641
0.0163241
0.017364
0.0183698
0.0189522
0.0187794
0.0133921
0.0134175
0.0135949
0.0139069
0.0144585
0.0151213
0.0158506
0.0165453
0.0170432
0.017119
0.01326
0.0132088
0.0132713
0.0134786
0.0137559
0.0142229
0.0147253
0.0152155
0.0156176
0.0158257
0.0132293
0.0131153
0.0131085
0.0132108
0.0133987
0.013606
0.0139431
0.0143232
0.0146577
0.0148883
0.013312
0.01314
0.013082
0.0131048
0.0132308
0.0134147
0.0135929
0.0138101
0.0140475
0.0142822
0.0135829
0.0133366
0.0132316
0.0132096
0.0132445
0.0133579
0.0135691
0.0137806
0.0139695
0.0142039
0.0144475
0.0151399
0.0162241
0.0174839
0.018781
0.0195825
0.0198665
0.0200652
0.0206672
0.0213945
0.0140864
0.0147323
0.0157244
0.0171917
0.0188644
0.0198635
0.0201637
0.0202636
0.020703
0.0213274
0.0138841
0.0143789
0.0152106
0.0164295
0.0181095
0.0198528
0.02048
0.0206252
0.0207758
0.0211564
0.0135625
0.0139031
0.0145512
0.0155223
0.0168521
0.0186032
0.0201187
0.0205931
0.0207058
0.0205898
0.0133183
0.0135098
0.0139297
0.0146563
0.0156458
0.0169072
0.0184476
0.0197455
0.0200897
0.0198863
0.0131156
0.0132069
0.0134102
0.0139269
0.0146031
0.0154868
0.0165087
0.0175695
0.0182813
0.0183031
0.0129922
0.0129844
0.0130795
0.0133224
0.0138084
0.0143844
0.0150768
0.0157827
0.0163665
0.0166335
0.0129824
0.0128672
0.0129069
0.0129835
0.0132319
0.01364
0.0140682
0.0145419
0.0149671
0.0152773
0.013088
0.0128905
0.0128528
0.01291
0.0129652
0.0131694
0.013483
0.013822
0.0141004
0.0143761
0.0133685
0.0130945
0.0129645
0.0129646
0.0130155
0.0130922
0.0132385
0.0134893
0.0137036
0.0140206
0.0143658
0.015085
0.0161257
0.0173933
0.0187159
0.0196216
0.0201995
0.0207414
0.0217872
0.0236261
0.014186
0.0148032
0.015799
0.017326
0.0189868
0.020065
0.0205866
0.021423
0.0226021
0.0240444
0.0138373
0.0144526
0.0154
0.0168347
0.018728
0.0202969
0.020965
0.0215506
0.0227638
0.0240187
0.0135214
0.0139571
0.0147426
0.0159863
0.0177427
0.0197728
0.0210484
0.021665
0.0225717
0.0233427
0.0131688
0.0134777
0.0140774
0.0150523
0.0164485
0.0183121
0.0203685
0.0213827
0.0219754
0.0221969
0.0129398
0.0130398
0.0134807
0.0141662
0.0151974
0.0165996
0.0182955
0.0199968
0.0207042
0.0208637
0.0127953
0.0127593
0.0129798
0.0134466
0.0141539
0.0151054
0.0163027
0.0175638
0.0185206
0.0189308
0.0126982
0.0126052
0.0126393
0.0129523
0.0133825
0.0140042
0.0147618
0.0155822
0.0162961
0.0168107
0.0126694
0.0125525
0.0125296
0.0126223
0.0129438
0.0133127
0.0137858
0.0142886
0.0146989
0.0150659
0.0128398
0.0126299
0.0125895
0.0126226
0.0127209
0.0129743
0.0133169
0.0136562
0.0139146
0.0141943
0.0146149
0.0151963
0.0160441
0.017179
0.0183698
0.0193632
0.020067
0.0202567
0.0219553
0.0225178
0.0145315
0.0149942
0.0159397
0.0173202
0.0189312
0.0202162
0.0210332
0.0217226
0.022864
0.023836
0.0139599
0.0146564
0.0157783
0.0173807
0.0192809
0.0209701
0.0218703
0.0227455
0.0239693
0.0247395
0.0136985
0.0141845
0.0152579
0.0169065
0.0190699
0.0212517
0.0226214
0.0234847
0.0247216
0.0253373
0.0132364
0.0136473
0.0145621
0.0160503
0.0182048
0.0207353
0.0227558
0.0239041
0.024911
0.0256968
0.0128468
0.0131449
0.0138254
0.014958
0.0168208
0.0193784
0.0220895
0.0237419
0.0248378
0.025607
0.0125851
0.0127274
0.013175
0.0140217
0.0153417
0.0172467
0.0199238
0.0225134
0.0239947
0.0248332
0.0124174
0.012405
0.0127015
0.0132507
0.0141797
0.015516
0.0171953
0.0191471
0.021016
0.0222942
0.0123838
0.012287
0.0123864
0.0127474
0.0133607
0.0142708
0.0153722
0.0164493
0.0172831
0.0181262
0.0126251
0.0123645
0.0123268
0.0125162
0.0128852
0.0134793
0.0143203
0.015017
0.0154181
0.0153573
0.0149143
0.0154847
0.0159466
0.0167599
0.0176483
0.018665
0.0195702
0.0206207
0.022854
0.0222153
0.0145688
0.015052
0.0159043
0.0171171
0.018522
0.0197509
0.0207148
0.0217688
0.0236829
0.0238562
0.0139651
0.0147716
0.0160049
0.0175437
0.0193397
0.0208379
0.0217921
0.022837
0.0245449
0.0253089
0.0137674
0.0144815
0.0158394
0.017686
0.0197825
0.0216705
0.0228469
0.0238747
0.025567
0.0264355
0.01329
0.0140336
0.0153873
0.0173584
0.0198352
0.0221645
0.0237201
0.0247618
0.0262528
0.0269752
0.0128797
0.0134219
0.0146274
0.0166375
0.0193001
0.0220575
0.0241587
0.0254515
0.0266021
0.0273414
0.0125888
0.0128733
0.0137563
0.0154986
0.0181921
0.0213497
0.0239221
0.0256626
0.0271022
0.0283751
0.0124317
0.0124738
0.0130694
0.0143268
0.0165391
0.0196253
0.0228824
0.025105
0.0267843
0.0281195
0.0124706
0.0123326
0.0125758
0.0134689
0.0150827
0.0173718
0.0201691
0.0228432
0.0246946
0.025876
0.0128214
0.012473
0.0124487
0.0128774
0.0139911
0.0159121
0.0182416
0.0199552
0.0197273
0.0187312
0.0154401
0.0160184
0.0160664
0.016364
0.0170326
0.0181852
0.0198229
0.0219255
0.022162
0.0222676
0.0146262
0.0151756
0.0159321
0.0169735
0.0183198
0.0197675
0.0210892
0.0229155
0.0246198
0.0246193
0.0139682
0.0149393
0.0162078
0.0177829
0.0195452
0.0211095
0.0223658
0.0240284
0.0263704
0.026766
0.0137807
0.0147473
0.0162772
0.018233
0.0204395
0.0223518
0.0237481
0.0253814
0.0278073
0.0287478
0.0134264
0.0144562
0.0160876
0.0183663
0.0209937
0.0233141
0.0249717
0.0266198
0.0292308
0.0304733
0.0131482
0.0139682
0.0156125
0.0181733
0.0212147
0.023942
0.0259468
0.0278606
0.0302412
0.0312933
0.013031
0.0134006
0.0149545
0.0176108
0.0210166
0.0242769
0.0267449
0.0287833
0.0310411
0.0319891
0.0133641
0.0130838
0.0141811
0.0167836
0.0203524
0.0242545
0.0275034
0.030293
0.0327343
0.0342728
0.0141656
0.0133384
0.0135468
0.0156965
0.0192041
0.0234725
0.0271536
0.0301402
0.0327126
0.0354094
0.0145688
0.0136577
0.0134182
0.0146715
0.0176835
0.0218375
0.0256396
0.0285271
0.0296357
0.0288023
0.0161585
0.0162453
0.0162518
0.0164914
0.0172041
0.0189249
0.0236108
0.0247094
0.0221467
0.0258926
0.0147871
0.0154731
0.0162698
0.0174836
0.0191852
0.0218991
0.0261713
0.0268923
0.0242602
0.0267906
0.0142814
0.0155306
0.0170504
0.0189718
0.0212954
0.0245225
0.0278105
0.0287655
0.0265484
0.0280228
0.0142189
0.0156635
0.0177178
0.0202127
0.0230538
0.0265304
0.0293108
0.0304052
0.0288225
0.0293239
0.0142216
0.0157631
0.0181834
0.0212116
0.024528
0.0280977
0.030654
0.0318959
0.0310709
0.0308821
0.0143803
0.0157031
0.0184014
0.0220143
0.0260065
0.029379
0.0317487
0.0329964
0.032973
0.0322484
0.0148129
0.0155146
0.0184514
0.022892
0.0274186
0.0307462
0.0329841
0.0345255
0.034966
0.0341708
0.0159678
0.0154229
0.0181927
0.0235387
0.0285048
0.0319194
0.0344805
0.035936
0.0364193
0.0355682
0.016915
0.0161485
0.0178365
0.0236071
0.0297663
0.0336203
0.0359773
0.0378411
0.0385764
0.0385845
0.0175247
0.0166943
0.017834
0.0230926
0.0297289
0.0345507
0.0382703
0.0407525
0.0419634
0.0413071
0.0167744
0.0166375
0.0167749
0.0174757
0.0186146
0.0232518
0.0233403
0.0224289
0.0290771
0.0422732
0.0155809
0.0166537
0.018328
0.0209929
0.0242551
0.0261773
0.0256928
0.0254857
0.0338048
0.042125
0.0159766
0.0182683
0.0215156
0.0249416
0.0272133
0.0280644
0.0278221
0.0283199
0.0378465
0.0416716
0.0165627
0.0199216
0.0240827
0.0274641
0.0291251
0.0297252
0.0298764
0.031592
0.0390736
0.0402591
0.0173201
0.0212746
0.0258987
0.0291635
0.0306745
0.0313845
0.0317471
0.0336616
0.0392837
0.0401039
0.018136
0.0221184
0.0271151
0.030487
0.0320023
0.0328061
0.0333114
0.034974
0.0397838
0.0399579
0.0189561
0.0224405
0.0278555
0.0314173
0.0330751
0.0340607
0.0345215
0.0356098
0.0397728
0.0398487
0.0196662
0.0222319
0.0281632
0.0321764
0.0340481
0.0351526
0.0356868
0.0363041
0.0396836
0.0395503
0.0209197
0.0223985
0.0281466
0.0324785
0.0346694
0.0360127
0.0366096
0.0368948
0.039432
0.0395441
0.023446
0.0233459
0.0283838
0.0331529
0.0355652
0.0369852
0.037799
0.0381092
0.0399049
0.0399566
0.0175558
0.0176981
0.0181506
0.0183852
0.01966
0.0225132
0.0235585
0.0302899
0.0451493
0.0439796
0.01805
0.0195592
0.0207706
0.0217355
0.0242047
0.0256745
0.0275718
0.039409
0.0437762
0.0380467
0.0205124
0.0227985
0.0244574
0.0256305
0.0275705
0.0292697
0.0346484
0.0404925
0.0402382
0.0300888
0.0224925
0.0254507
0.0271911
0.0284473
0.0303898
0.0330856
0.0383887
0.0398264
0.033897
0.0260041
0.0244607
0.0274539
0.0292191
0.0306503
0.0328737
0.036309
0.0387938
0.038262
0.0300012
0.0239989
0.0260116
0.0290467
0.0308564
0.0324756
0.0349767
0.0378766
0.0387445
0.03664
0.0276774
0.023151
0.027148
0.0300651
0.0319211
0.033809
0.036446
0.0384318
0.0385907
0.0354676
0.027145
0.0232936
0.0279693
0.0307834
0.0329447
0.034974
0.0374818
0.0388035
0.0384679
0.0350131
0.0274054
0.0237081
0.0281725
0.0309368
0.0333548
0.0355618
0.0379646
0.0389057
0.0385043
0.0351972
0.0280979
0.0244972
0.0287283
0.0314308
0.0339172
0.0362301
0.0383327
0.039125
0.0386906
0.0360877
0.0298438
0.0257817
0.0198832
0.0201386
0.019633
0.0203705
0.0232669
0.0264633
0.0367872
0.0443505
0.0425658
0.0408054
0.0203593
0.0214359
0.0218875
0.0240026
0.0275386
0.0332652
0.0418701
0.0433658
0.03978
0.0371988
0.0224204
0.0240398
0.0251811
0.0279074
0.0325452
0.0396458
0.0418458
0.0407167
0.0336468
0.0307912
0.0250015
0.0265518
0.0283873
0.0317838
0.0379361
0.0409031
0.0408957
0.0353032
0.0293062
0.0267043
0.0270891
0.0287405
0.0312523
0.0354537
0.0399974
0.0406747
0.0388041
0.03108
0.0264507
0.0241421
0.0289661
0.0307237
0.033614
0.0380433
0.0403107
0.0401602
0.0356167
0.0281252
0.0247556
0.0225329
0.0300532
0.0320776
0.0353148
0.0391463
0.040242
0.0392155
0.0334933
0.0266267
0.023714
0.0217362
0.0312049
0.0333353
0.0366325
0.039619
0.0400724
0.0381833
0.0317277
0.0257489
0.0231324
0.0211765
0.0315754
0.0336236
0.0369441
0.0396443
0.0399154
0.0378652
0.031669
0.0257591
0.0228719
0.0211376
0.0321016
0.0342863
0.0374479
0.039715
0.0398423
0.038121
0.0325601
0.0262436
0.0229674
0.0211612
0.0206513
0.0211088
0.0211527
0.0229116
0.0267491
0.0309042
0.0402263
0.04152
0.040155
0.0399254
0.0209761
0.0219308
0.0227471
0.0256685
0.0302107
0.0360991
0.0415416
0.0417524
0.0403301
0.039873
0.0222699
0.0237444
0.0253081
0.0288359
0.0342766
0.0402058
0.0420903
0.0413955
0.0395828
0.0385893
0.024811
0.0260963
0.0281382
0.0322757
0.038762
0.04166
0.0419793
0.040337
0.0378661
0.0351451
0.0271387
0.0282803
0.0311072
0.0362617
0.0409643
0.0419992
0.0415642
0.0389823
0.0354082
0.0322907
0.0292634
0.0306439
0.0339694
0.0392961
0.0417055
0.0419139
0.0404322
0.0364901
0.0328917
0.029493
0.0306335
0.032334
0.036322
0.0407728
0.0419068
0.0416874
0.0394229
0.0351854
0.0317661
0.0285607
0.0316874
0.0339516
0.0380997
0.0413832
0.0419007
0.0412101
0.0381894
0.0340103
0.0307432
0.0270492
0.0323966
0.0343673
0.0387098
0.0415661
0.0419068
0.0410828
0.0380092
0.0339305
0.0303576
0.0266849
0.032982
0.0352798
0.0393975
0.0417071
0.0419286
0.0411547
0.0386587
0.0343739
0.0299916
0.0256198
0.0231156
0.0236414
0.0244425
0.026455
0.0281965
0.0315872
0.0343429
0.0331563
0.0330836
0.0335838
0.0238926
0.0247878
0.0261398
0.0286323
0.0307025
0.0335262
0.0350757
0.033843
0.0334155
0.0337837
0.0264603
0.026965
0.0284884
0.0309986
0.0332137
0.0348564
0.0353765
0.033885
0.0334623
0.0342937
0.0302559
0.0299293
0.0311471
0.0333528
0.0350625
0.0355893
0.0353081
0.0338697
0.0336846
0.0350298
0.0338319
0.0332664
0.0340031
0.0355203
0.0362194
0.0360106
0.0352192
0.0341008
0.0342985
0.0362424
0.0356924
0.0360336
0.0367004
0.0372773
0.0373252
0.0365123
0.0355379
0.0348345
0.0358106
0.0386881
0.036515
0.0373767
0.0386182
0.0390396
0.0385042
0.0375271
0.0364467
0.0365638
0.0377025
0.0399308
0.0374378
0.0382295
0.0397823
0.0404314
0.0400872
0.0389876
0.0383789
0.0384619
0.0396589
0.0405291
0.0377092
0.0385111
0.0402595
0.0412443
0.0412825
0.0409553
0.0403226
0.0405408
0.0409789
0.0412754
0.0379559
0.0389973
0.0406267
0.0417794
0.042136
0.0421894
0.0421728
0.0417403
0.0423985
0.040262
0.035765
0.0375957
0.0381485
0.0386166
0.0385945
0.0387715
0.0373658
0.0358707
0.0355072
0.0348696
0.0365241
0.0370918
0.0378182
0.0386523
0.0388506
0.0393112
0.0391034
0.0381305
0.0371606
0.0363307
0.0371666
0.0372753
0.0377788
0.0384531
0.0388655
0.0396682
0.0399447
0.0395929
0.0386342
0.0375596
0.0376318
0.0375793
0.0378542
0.0382055
0.0386839
0.0394666
0.0403215
0.0405398
0.0401837
0.0393098
0.0373842
0.0372283
0.0373652
0.0377717
0.0383783
0.0390304
0.0399765
0.0413002
0.0414065
0.0413337
0.0356314
0.0358825
0.0366853
0.037449
0.0379832
0.0385676
0.0393994
0.0411191
0.0423417
0.0427778
0.0342726
0.0351382
0.0364754
0.0372199
0.037823
0.0383147
0.0389935
0.0404654
0.043017
0.0436688
0.0335395
0.0348005
0.0361876
0.0370273
0.0377816
0.0383417
0.0388273
0.0399312
0.0429504
0.0443445
0.0333652
0.0348434
0.0362238
0.037246
0.0382399
0.0392124
0.0392973
0.0399106
0.0424845
0.0452338
0.0337339
0.0355096
0.0368429
0.0380829
0.0400332
0.0404516
0.0400568
0.039694
0.0429669
0.0440089
0.0335559
0.0340246
0.0338982
0.0338991
0.034232
0.0350762
0.0361052
0.0366305
0.0367146
0.0369319
0.032239
0.0321515
0.0322623
0.0326431
0.0332655
0.0341089
0.0348444
0.0356553
0.0362174
0.0371348
0.0312597
0.0311705
0.0314899
0.0321686
0.0328835
0.0336422
0.0343052
0.0350534
0.0356881
0.0370436
0.0301057
0.0304428
0.0312131
0.0320806
0.0327969
0.0335012
0.0339913
0.0345448
0.0353036
0.0367986
0.0294524
0.0302785
0.0313194
0.0322288
0.033174
0.0336756
0.0338793
0.0342009
0.0348953
0.0366403
0.0292677
0.0306271
0.0318385
0.0331763
0.0341379
0.0344174
0.0342066
0.0342056
0.0346922
0.0370475
0.0299569
0.0316306
0.0331637
0.0346649
0.0351903
0.0350415
0.0343661
0.0341209
0.0345625
0.0372576
0.0317332
0.0331472
0.0349254
0.0361104
0.0360017
0.0353806
0.0341724
0.0337748
0.0342747
0.0371186
0.0323566
0.0338398
0.0361125
0.0368272
0.0365127
0.0353628
0.033771
0.0331971
0.0344223
0.0382165
0.0321349
0.0348809
0.0371463
0.0375356
0.0367331
0.0350085
0.0337305
0.0340545
0.0363624
0.0373843
0.034859
0.0344778
0.0340885
0.0337706
0.0334681
0.0330411
0.032761
0.0323525
0.0318095
0.0302536
0.0348718
0.0344001
0.0339409
0.0335631
0.0330533
0.032576
0.0322619
0.0319297
0.0311146
0.030711
0.034616
0.0340986
0.0336556
0.0332317
0.0326705
0.0321315
0.0317688
0.0313772
0.0304753
0.0296701
0.0343819
0.033953
0.0335202
0.033034
0.0324956
0.0319798
0.0315685
0.0309927
0.029805
0.0287112
0.0340179
0.0337375
0.0333725
0.0329563
0.032489
0.0319827
0.0313883
0.0303286
0.0281609
0.0257774
0.0336742
0.0335597
0.0332578
0.0329516
0.0326652
0.0320447
0.0307963
0.0280555
0.0247828
0.0227412
0.0334551
0.0334231
0.0331315
0.0330232
0.0327263
0.0315426
0.0288002
0.0254394
0.022864
0.0213935
0.0332438
0.0332887
0.0328589
0.0329971
0.0325788
0.0301918
0.0269941
0.0242673
0.0221628
0.0209676
0.0328727
0.0330376
0.0324556
0.0326967
0.0320907
0.0291447
0.0261204
0.0239922
0.0227843
0.022026
0.0326067
0.0327135
0.0316121
0.0319729
0.0312721
0.0285641
0.0265602
0.0249671
0.0237778
0.0226435
0.0346716
0.0336645
0.0323559
0.0310937
0.0298787
0.0289058
0.0267391
0.026192
0.0283461
0.0277615
0.0346723
0.0336847
0.0322223
0.0307167
0.0292932
0.0278145
0.0258813
0.0259721
0.0272044
0.0269062
0.0336896
0.0327673
0.0312703
0.0297759
0.0283011
0.0268232
0.0253378
0.0250218
0.026576
0.0268135
0.0332115
0.0323756
0.0308207
0.0292256
0.0277027
0.0261533
0.0248279
0.0244314
0.0254133
0.026163
0.0324311
0.0315121
0.0299716
0.0284219
0.0268787
0.0254306
0.0243903
0.0240128
0.0243991
0.0247406
0.0318503
0.0309653
0.029446
0.0279021
0.0262999
0.0249457
0.0240427
0.0236334
0.0235903
0.0233993
0.0312372
0.0300643
0.0286481
0.0272471
0.0259233
0.0247224
0.0237952
0.0232377
0.0228406
0.0222369
0.0305677
0.0293267
0.0279628
0.0269182
0.0258301
0.0246633
0.0236744
0.0229491
0.0222891
0.0216179
0.0299015
0.0283434
0.0271357
0.0266045
0.0258285
0.0247982
0.0238276
0.0230369
0.0222199
0.0214701
0.0292582
0.0275019
0.026292
0.0260055
0.0256942
0.0250656
0.0242814
0.0233619
0.0223491
0.0211858
0.0319953
0.0328584
0.0323278
0.0317552
0.0313844
0.0321613
0.0332873
0.0347829
0.0344922
0.0300985
0.031722
0.0326291
0.0323939
0.0316558
0.0305381
0.0310457
0.0319781
0.0339257
0.0345967
0.0328431
0.0312115
0.0323617
0.0321197
0.0313741
0.0299456
0.0300463
0.0308292
0.0324551
0.0339631
0.0334908
0.0310553
0.0322427
0.0319892
0.0309996
0.029329
0.0290022
0.0297091
0.0311868
0.0330217
0.0330258
0.0309865
0.0320032
0.0315702
0.0302798
0.0285696
0.0278393
0.0285978
0.0303471
0.0324835
0.0326713
0.031445
0.0318278
0.0310305
0.0293
0.0275751
0.0267482
0.0275248
0.029627
0.0322856
0.0321823
0.0316484
0.0312336
0.0298852
0.0280827
0.0264418
0.0256241
0.0264171
0.0290576
0.0323181
0.0311867
0.031301
0.0302395
0.0286411
0.0268761
0.0252178
0.0244383
0.0251354
0.0278684
0.0320872
0.0323655
0.0304075
0.0288541
0.0274561
0.0255947
0.0238157
0.0231519
0.0236434
0.0254528
0.030109
0.032117
0.029073
0.0280442
0.0263134
0.0241496
0.0223881
0.0219671
0.0223312
0.0237348
0.0277573
0.0278393
0.0292112
0.0326893
0.0355363
0.0368505
0.037179
0.0366644
0.0327094
0.0309705
0.0300057
0.0281401
0.0297504
0.0302967
0.0320223
0.0350286
0.0374594
0.0381741
0.0366939
0.0307979
0.0287715
0.0273395
0.0280564
0.0291681
0.0303361
0.0319161
0.0340267
0.0382261
0.0393345
0.0355072
0.0296426
0.0276615
0.0272425
0.0281712
0.0296238
0.030909
0.0322298
0.0345077
0.0393337
0.0407882
0.0324807
0.0288253
0.026791
0.027848
0.0294356
0.0306262
0.0314612
0.0330028
0.0353497
0.040708
0.0381706
0.0310251
0.026577
0.0280544
0.0301552
0.0310911
0.031262
0.0318636
0.033697
0.0385986
0.0399594
0.0346248
0.0268086
0.0290397
0.0308378
0.0313408
0.0312163
0.0313168
0.0323757
0.0356635
0.0399065
0.0353021
0.0281124
0.0305437
0.0317092
0.0315863
0.0311537
0.0306146
0.0312541
0.0334588
0.0391
0.0375101
0.03032
0.0321098
0.0320536
0.0314795
0.0304784
0.0294488
0.0299036
0.0315902
0.0369099
0.0379088
0.0324288
0.032669
0.0320184
0.0302824
0.0287977
0.0275142
0.0279175
0.0292353
0.0320708
0.0306756
0.0251718
0.0220242
0.0207998
0.02097
0.0214799
0.0225954
0.0242271
0.0248194
0.0250419
0.0260428
0.0245423
0.0222637
0.0223813
0.024831
0.0267071
0.0273717
0.0274727
0.0269739
0.0266435
0.0264915
0.0236519
0.0235277
0.026858
0.0285436
0.0289972
0.0290129
0.0284374
0.0280417
0.0278991
0.028018
0.0247845
0.0270969
0.0291807
0.0296753
0.0296886
0.0291077
0.0283368
0.027879
0.0277789
0.0276955
0.0268862
0.0290722
0.0298913
0.0300212
0.0297328
0.0289412
0.0280623
0.0276734
0.0271089
0.0255658
0.0282938
0.029984
0.0304179
0.0302561
0.0296647
0.0286122
0.0275758
0.0270978
0.0261423
0.0250848
0.0287955
0.0301841
0.0310551
0.0308571
0.0299241
0.0287935
0.027603
0.0266551
0.0254906
0.0251507
0.0285652
0.0297979
0.0313134
0.0317418
0.0308878
0.0295036
0.0281723
0.0270349
0.0253759
0.024945
0.0275204
0.0287465
0.0304877
0.0317923
0.0321098
0.0314651
0.0301285
0.028754
0.0257688
0.0262422
0.0267141
0.0277195
0.0291203
0.0307547
0.0319261
0.0323726
0.0325585
0.0319583
0.0278118
0.0261286
0.0192591
0.0186553
0.0183869
0.018371
0.0189334
0.0202608
0.0217061
0.0229976
0.02411
0.0241044
0.0194239
0.0188832
0.0186153
0.0186829
0.0192833
0.0206782
0.0223699
0.0233928
0.0236066
0.0234486
0.0194894
0.0190759
0.018785
0.0188938
0.019505
0.0209089
0.0228407
0.0237399
0.0239284
0.023983
0.0196211
0.0191847
0.0189882
0.0191064
0.0197039
0.0210498
0.0230331
0.0238863
0.0240838
0.024274
0.0198707
0.0193478
0.019167
0.0193091
0.0198488
0.0210448
0.0230304
0.0238695
0.0240066
0.0241619
0.0200154
0.0196093
0.0193464
0.0194419
0.0199032
0.020955
0.0228568
0.0238133
0.0237591
0.0240548
0.0199824
0.0196913
0.0195446
0.0196334
0.0200037
0.0208317
0.0223314
0.023673
0.0236225
0.0245609
0.0198943
0.0196667
0.0196629
0.0199371
0.0202932
0.0208891
0.0216867
0.0231506
0.0233014
0.024405
0.0197947
0.0197475
0.0199622
0.0206211
0.0210734
0.0213833
0.0217928
0.0227381
0.0228225
0.0234851
0.020024
0.0200918
0.0211989
0.0224513
0.023396
0.0240612
0.0239898
0.0237231
0.0236732
0.0235495
0.0198769
0.0198582
0.0191967
0.0182543
0.0175911
0.0173078
0.0172393
0.0171788
0.017167
0.0170591
0.0195122
0.0196289
0.0192859
0.0186022
0.0180061
0.0172925
0.0168072
0.0168127
0.0164587
0.0163175
0.0188837
0.0190117
0.0189788
0.0184718
0.0180009
0.0174022
0.016548
0.0164855
0.0162854
0.016187
0.017765
0.0180447
0.0181356
0.0180101
0.0177315
0.017452
0.0165825
0.0164429
0.0162025
0.0160904
0.0176096
0.0171413
0.0173718
0.0172943
0.0172345
0.0173293
0.01693
0.0164754
0.01619
0.0161353
0.0175526
0.0168682
0.0167815
0.0168784
0.0168424
0.0167686
0.0169345
0.016655
0.0162637
0.0162694
0.0173819
0.0168452
0.0166486
0.0166103
0.0164364
0.0161392
0.0161322
0.016517
0.0163461
0.0163129
0.017185
0.0165764
0.015721
0.0153587
0.0152547
0.0151899
0.0154786
0.0162042
0.0162631
0.0162808
0.0159603
0.0155108
0.0153587
0.0153156
0.0153291
0.0152757
0.0155991
0.0158198
0.0156818
0.0157812
0.015294
0.0151873
0.0151461
0.015286
0.0153899
0.0153929
0.0155759
0.0156438
0.0157171
0.0162645
0.0104774
0.0105001
0.0106174
0.0107157
0.0107507
0.0107805
0.0107881
0.0107291
0.0106446
0.0106242
0.0104679
0.0105156
0.0105892
0.0106229
0.0107216
0.0107944
0.0108216
0.010861
0.0108777
0.0109512
0.010457
0.0104727
0.0104972
0.0105045
0.010543
0.0107491
0.0108231
0.0108535
0.0108763
0.0108972
0.0104686
0.0104711
0.0104752
0.0104766
0.0104756
0.0104723
0.010634
0.0106674
0.010618
0.010602
0.0104995
0.0104856
0.0104776
0.0104745
0.0104726
0.0104649
0.0104644
0.0105302
0.0106109
0.0105674
0.0105606
0.0105342
0.010505
0.0104806
0.0104726
0.0104665
0.0104576
0.0104608
0.010482
0.0104599
0.0105245
0.0105196
0.010508
0.0104843
0.0104649
0.0104609
0.0104529
0.0104481
0.010445
0.0104143
0.0104445
0.0104636
0.010487
0.0104762
0.0104559
0.0104507
0.0104436
0.010427
0.0104013
0.0103993
0.0104217
0.010415
0.0104359
0.0104407
0.0104273
0.0104238
0.0104137
0.0104078
0.0104431
0.0104171
0.0104256
0.0104076
0.010411
0.0104037
0.0103924
0.0103853
0.010399
0.0104248
0.0104306
0.0104266
0.00956201
0.00951268
0.0094991
0.0095228
0.00960462
0.00979715
0.0100773
0.0102372
0.0103104
0.0102724
0.00968746
0.00968877
0.00967537
0.00970615
0.00982169
0.0101147
0.0102759
0.0103596
0.0103476
0.0101779
0.00990811
0.00999527
0.0100162
0.0101237
0.0102194
0.0103638
0.0104318
0.0104407
0.010391
0.0101038
0.0101567
0.0101871
0.010176
0.0102118
0.0103205
0.0104567
0.0105052
0.0104978
0.0104472
0.0102115
0.0101298
0.0101774
0.0101946
0.0102318
0.0103105
0.0104085
0.0105246
0.01055
0.0105246
0.0104017
0.0101603
0.0101682
0.0101911
0.0102205
0.0102882
0.0103467
0.0104402
0.0105521
0.0105968
0.0106096
0.01053
0.0104661
0.0102978
0.0102507
0.0102751
0.0103354
0.0103789
0.010464
0.010675
0.0107362
0.0106317
0.010625
0.0105557
0.0103998
0.0103189
0.0103468
0.0103949
0.0104978
0.0107598
0.0107778
0.0105073
0.0106159
0.0105847
0.0104982
0.0104402
0.0104168
0.0104258
0.0106623
0.0107682
0.0106334
0.0104048
0.0105095
0.0105559
0.0104844
0.0104415
0.0104277
0.0106097
0.0106635
0.0104692
0.010189
0.00975502
0.00972474
0.00978029
0.0100752
0.0103017
0.0104664
0.0105368
0.0104938
0.0103751
0.0103214
0.00992695
0.00998093
0.0101134
0.0103626
0.0104869
0.0105817
0.010581
0.0104208
0.0102764
0.0102451
0.0103432
0.0103954
0.0104788
0.0105662
0.0106738
0.0107105
0.0106633
0.0105001
0.0103487
0.0102535
0.0107314
0.0107161
0.0106995
0.0107285
0.0107941
0.0107965
0.0107535
0.0106523
0.0104897
0.0103062
0.0108881
0.0108519
0.0108214
0.0108286
0.0108567
0.0108427
0.0107996
0.0107083
0.0105414
0.0103254
0.010885
0.0109354
0.0109102
0.0108793
0.010864
0.0108484
0.010803
0.0107153
0.010589
0.0104625
0.0110601
0.0110499
0.0109472
0.0108968
0.0108752
0.0108627
0.0108418
0.0108382
0.0108426
0.0107403
0.0112834
0.0110957
0.0109609
0.0108899
0.010869
0.0109166
0.0110347
0.0110928
0.0110355
0.0108119
0.0112558
0.0110432
0.0108896
0.0108378
0.0108627
0.0110086
0.0110761
0.0110591
0.0108867
0.0106395
0.0110935
0.0108696
0.0107577
0.0107409
0.0108106
0.0109045
0.0109017
0.010753
0.010492
0.0103591
0.0187365
0.0190765
0.0193872
0.0195779
0.0196778
0.0197055
0.0197476
0.0198016
0.0198931
0.0200952
0.0187315
0.0190396
0.0192914
0.0194944
0.0196321
0.0196891
0.0197199
0.0197256
0.0197768
0.0199134
0.0184412
0.0188899
0.0192542
0.0195033
0.0196463
0.019702
0.0197154
0.019716
0.0197338
0.0198156
0.0182271
0.0186534
0.0191122
0.0194665
0.0196894
0.0197759
0.0197761
0.019756
0.0197644
0.0198007
0.018114
0.018497
0.0189453
0.0193681
0.0196884
0.0198493
0.019882
0.0198754
0.0198562
0.0198313
0.0181849
0.0184633
0.0189138
0.0193341
0.0196917
0.0199182
0.0200036
0.0199992
0.0199787
0.0199153
0.0184165
0.0186145
0.0190254
0.0194159
0.0197592
0.0200223
0.0201434
0.0201435
0.0201166
0.0200588
0.0187747
0.0189184
0.0192582
0.019623
0.019945
0.020185
0.0202938
0.0202904
0.0202546
0.0201768
0.0191825
0.019296
0.0195933
0.019919
0.0201943
0.0203648
0.0204301
0.0204112
0.0203493
0.0202621
0.0195321
0.0196276
0.0199032
0.020218
0.0204221
0.0205295
0.020524
0.0204779
0.0203624
0.0202843
0.0181995
0.0185603
0.018871
0.019099
0.019238
0.0193509
0.0194477
0.0195868
0.0196966
0.0199213
0.0182257
0.0185482
0.0188094
0.0190401
0.0192222
0.0193376
0.0194208
0.01949
0.0195708
0.0197042
0.0180045
0.0184622
0.0188169
0.0190741
0.0192542
0.0193606
0.0194266
0.0194774
0.0195258
0.019605
0.0178371
0.0182673
0.0187226
0.0190856
0.0193376
0.0194628
0.0195193
0.0195386
0.0195647
0.0196225
0.0177513
0.0181352
0.0185858
0.0190252
0.0193803
0.0195954
0.0196784
0.0196901
0.0196924
0.0197072
0.017864
0.018122
0.0185938
0.019045
0.019432
0.0197194
0.0198574
0.0198985
0.019896
0.0198944
0.0181114
0.0183042
0.0187308
0.0191763
0.0195658
0.0198593
0.0200406
0.0201094
0.0201104
0.0200795
0.0184704
0.0185995
0.0189205
0.0193376
0.0197357
0.020029
0.0202139
0.0202821
0.0202712
0.0202153
0.0188564
0.0189274
0.0191314
0.0194932
0.0198639
0.0201544
0.0203183
0.0203648
0.0203501
0.0202858
0.0192099
0.0192359
0.0193583
0.0196288
0.019934
0.020197
0.0203299
0.0203643
0.0203365
0.020266
0.0176167
0.0179753
0.0182919
0.0185366
0.0187329
0.0189149
0.0190759
0.019301
0.0194627
0.0197001
0.0176692
0.0179937
0.0182724
0.0185476
0.0187647
0.0189311
0.019077
0.0192057
0.0193277
0.019486
0.0175709
0.0179772
0.0183177
0.0186036
0.0188339
0.0189954
0.0191163
0.0192199
0.0193152
0.0194265
0.0174506
0.0179149
0.018329
0.0186869
0.0189819
0.019165
0.0192675
0.0193309
0.0193924
0.0194736
0.0174174
0.0178187
0.0183367
0.018777
0.01913
0.0193843
0.0195265
0.0195793
0.0196024
0.0196534
0.0175694
0.0178657
0.0183913
0.0189078
0.0193239
0.0196198
0.0198126
0.019899
0.0199135
0.0199182
0.0178242
0.0180783
0.0185773
0.0191081
0.0195636
0.019881
0.0200745
0.0201563
0.0201708
0.0201575
0.0181835
0.0183883
0.0187787
0.0192236
0.019666
0.0200363
0.0202538
0.0203417
0.020353
0.0203315
0.0185882
0.0187013
0.0189126
0.0192305
0.0196266
0.0200226
0.0202808
0.0203808
0.0203864
0.0203625
0.0190651
0.0190581
0.019068
0.0191699
0.0194543
0.019804
0.0200927
0.0202335
0.0202719
0.0202364
0.0169882
0.0173732
0.0176928
0.0179635
0.0182021
0.0184317
0.0186692
0.0189382
0.0192198
0.0194649
0.0170858
0.0174134
0.0177213
0.0180172
0.018274
0.0184939
0.0187094
0.0189035
0.0190919
0.0192654
0.0170778
0.0174882
0.0178425
0.0181532
0.0184195
0.0186233
0.0188068
0.0189581
0.0191075
0.0192593
0.0170796
0.0175174
0.0179466
0.0183376
0.0186662
0.0188976
0.019053
0.0191561
0.019247
0.0193654
0.0171095
0.0175873
0.0180915
0.0185576
0.018953
0.0192468
0.0194329
0.0195363
0.0195849
0.0196594
0.0173183
0.0177108
0.01831
0.0188662
0.0193087
0.019621
0.0198248
0.019928
0.0199696
0.0199932
0.0176036
0.017976
0.0185895
0.0191456
0.0196208
0.0199579
0.0201615
0.0202619
0.0203076
0.0203027
0.0179382
0.0182742
0.0187298
0.0192013
0.0196729
0.0200677
0.0203278
0.0204445
0.0204835
0.0204751
0.0183258
0.0185277
0.0187456
0.0190388
0.0194173
0.0198382
0.0201803
0.0203439
0.020375
0.0203614
0.0189442
0.0189294
0.0188588
0.0188629
0.0189944
0.0193311
0.0196558
0.0199035
0.0200656
0.0200875
0.0163818
0.0167673
0.0170787
0.0173732
0.017655
0.0179418
0.0182514
0.0185781
0.0189322
0.0192098
0.0165092
0.0168413
0.0171779
0.0175028
0.0178012
0.0180729
0.0183404
0.0185958
0.0188482
0.0190587
0.0166057
0.0170274
0.017391
0.0177287
0.018031
0.0182896
0.0185143
0.0187085
0.0189094
0.0190956
0.0167144
0.0171481
0.0176379
0.0180614
0.0184037
0.0186767
0.0188801
0.0190198
0.0191374
0.0192945
0.0168528
0.0173534
0.0178744
0.0184182
0.0188351
0.0191541
0.0193743
0.0195077
0.0195874
0.0196854
0.017108
0.0176067
0.018255
0.0188561
0.0193109
0.019634
0.0198489
0.019982
0.0200583
0.0200962
0.0174447
0.0179766
0.0186349
0.0192261
0.0197048
0.0200457
0.0202489
0.020354
0.0204145
0.0204175
0.0177877
0.0182734
0.0187321
0.0191993
0.019664
0.0200631
0.0203259
0.0204546
0.0205015
0.0205171
0.0181523
0.0184102
0.0186137
0.0188117
0.0191707
0.0195822
0.019948
0.0201903
0.0202639
0.0202851
0.0188363
0.0188366
0.0187232
0.0186162
0.0186436
0.0188242
0.0191502
0.0193585
0.019567
0.0196914
0.0158135
0.0161493
0.0164699
0.0167884
0.01712
0.0174557
0.0178276
0.0182325
0.0186288
0.0189423
0.0159493
0.0163076
0.0166713
0.0170119
0.017347
0.0176576
0.0179815
0.0182899
0.0186037
0.0188471
0.0161788
0.0165795
0.0169546
0.0173381
0.0176822
0.0179798
0.0182511
0.0184784
0.0187144
0.0189396
0.0163818
0.0168645
0.0173819
0.0177801
0.0181591
0.0184776
0.0187137
0.0188984
0.0190537
0.0192509
0.016624
0.0171527
0.0177324
0.0182939
0.0187203
0.0190676
0.0193014
0.0194612
0.0195738
0.0197039
0.0169435
0.017541
0.0182308
0.0188439
0.0193005
0.0196224
0.0198391
0.0199788
0.0200911
0.0201604
0.0173443
0.0180056
0.0187125