/*--------------------------------*- C++ -*----------------------------------*\
  =========                 |
  \\      /  F ield         | OpenFOAM: The Open Source CFD Toolbox
   \\    /   O peration     | Website:  https://openfoam.org
    \\  /    A nd           | Version:  9
     \\/     M anipulation  |
\*---------------------------------------------------------------------------*/
FoamFile
{
    format      ascii;
    class       volScalarField;
    location    "79";
    object      f14.gas;
}
// * * * * * * * * * * * * * * * * * * * * * * * * * * * * * * * * * * * * * //

dimensions      [0 0 0 0 0 0 0];

internalField   nonuniform List<scalar> 
137980
(
0.00749068
0.00776933
0.00844763
0.00938358
0.0102899
0.0107668
0.0108893
0.010916
0.011076
0.0112738
0.00721447
0.00747275
0.00803845
0.00889781
0.010048
0.0108337
0.0110153
0.0110405
0.0111188
0.0112674
0.00713666
0.00731641
0.00768193
0.00832698
0.00924856
0.0104548
0.0110522
0.0111218
0.0110341
0.0108213
0.00694994
0.00706402
0.00731335
0.00777042
0.00844653
0.00926258
0.0102344
0.0108029
0.0108547
0.0105003
0.00679173
0.00684936
0.00700764
0.00729494
0.00777213
0.00833884
0.00897817
0.00961195
0.00998753
0.00991045
0.00664316
0.00665538
0.00674167
0.00693127
0.00721181
0.00762311
0.00804117
0.00846398
0.00877245
0.00884303
0.00654988
0.00651719
0.00653714
0.00665856
0.00681757
0.0070633
0.0073768
0.00767084
0.00790238
0.00803724
0.00651901
0.00645218
0.00644086
0.00648357
0.00660863
0.00673119
0.00690097
0.00712643
0.00731194
0.00746633
0.00654801
0.00645521
0.00642135
0.00642809
0.00649419
0.00662421
0.00673346
0.0068573
0.00697293
0.00709656
0.00669034
0.00654814
0.00649698
0.00648739
0.0065019
0.00656904
0.006707
0.00683664
0.00693725
0.00707219
0.0072005
0.00758619
0.00828233
0.00917391
0.0101028
0.0106858
0.0108753
0.0109598
0.0112595
0.0116521
0.0069813
0.00734468
0.00791505
0.00886488
0.0100809
0.0108117
0.011019
0.0110834
0.011292
0.0116224
0.00689711
0.00717877
0.00764034
0.00838016
0.0094475
0.0106731
0.0111086
0.0111992
0.0112477
0.0114078
0.00671404
0.00690169
0.00723226
0.00781714
0.00861001
0.00968564
0.0107442
0.0110658
0.0111155
0.0108874
0.00655904
0.00667589
0.00688353
0.00731142
0.00786929
0.00860529
0.0095172
0.0103853
0.0106202
0.0104798
0.00643019
0.00648317
0.00659946
0.00685994
0.00726051
0.00775931
0.00833908
0.00894612
0.00938741
0.00947221
0.00635268
0.00634324
0.00640842
0.00651129
0.00679146
0.00711792
0.00750176
0.00790651
0.00823917
0.00842376
0.00634847
0.00627449
0.00629301
0.00634553
0.0064473
0.00668109
0.0069337
0.00719859
0.00742929
0.00762127
0.00640949
0.00628897
0.0062612
0.00630172
0.00633387
0.00641433
0.00658707
0.00677105
0.00693056
0.00710243
0.00655972
0.00640078
0.00632057
0.00632647
0.0063652
0.00640684
0.00646637
0.0065936
0.0067035
0.00688218
0.00702256
0.0074824
0.00814787
0.00902159
0.0100284
0.0107074
0.0110282
0.0112149
0.0117408
0.0130576
0.00700668
0.00736151
0.00793809
0.00892694
0.0101509
0.010905
0.0112556
0.0117805
0.0124454
0.0133365
0.00676617
0.00716014
0.00770865
0.0085685
0.00981671
0.0109506
0.0114116
0.0118101
0.0126206
0.0133616
0.00659793
0.0068516
0.00730186
0.00801688
0.00905438
0.0104098
0.0113229
0.0117425
0.0123847
0.0128244
0.00641612
0.00657335
0.00692828
0.00745802
0.00824225
0.00931923
0.0106542
0.0114016
0.0117765
0.0118854
0.00629361
0.00633969
0.00657326
0.00694921
0.00751549
0.00827455
0.00923678
0.0102417
0.0107604
0.0109337
0.00621362
0.00619713
0.00627411
0.00655007
0.00691767
0.00743085
0.00806489
0.00877717
0.00934678
0.0096595
0.00616583
0.00611541
0.00611528
0.00625268
0.00649762
0.00681854
0.00722032
0.00765591
0.00804106
0.00836045
0.00614276
0.00608454
0.00606969
0.00608185
0.00624511
0.00645632
0.00669543
0.0069542
0.00716133
0.0073724
0.00622831
0.00612049
0.00610554
0.0061098
0.00613482
0.00626256
0.00646526
0.00663805
0.00676538
0.00692453
0.00707504
0.00749695
0.00803147
0.00882423
0.00978219
0.0105822
0.0109855
0.01085
0.011652
0.0121789
0.00712878
0.00740518
0.00796091
0.00890251
0.0101048
0.0111457
0.0116227
0.0118146
0.0123782
0.0130138
0.00677541
0.00720386
0.00786487
0.00885213
0.0102061
0.0114929
0.0121483
0.012645
0.013308
0.0136986
0.0066273
0.00690771
0.00749786
0.00844595
0.00984295
0.0114961
0.0125708
0.0132087
0.0139749
0.0142408
0.00638133
0.00661611
0.00709542
0.00787447
0.00913494
0.0108609
0.0124736
0.0132819
0.0140386
0.0144089
0.00616342
0.00632385
0.00668288
0.00728467
0.00822515
0.00969094
0.0116687
0.0129978
0.0138262
0.0142448
0.00601912
0.00607281
0.00633389
0.00676991
0.00744056
0.00843773
0.00982107
0.0117521
0.0129284
0.0135242
0.00591891
0.00590942
0.00606953
0.00635801
0.00682431
0.00749324
0.00838085
0.00941754
0.0104459
0.0113623
0.00589478
0.00584628
0.00589468
0.00610801
0.00639999
0.00685174
0.00740209
0.00796413
0.00837288
0.00884443
0.00603791
0.00588313
0.00586597
0.00596582
0.00617745
0.00645737
0.00687461
0.00722302
0.00738771
0.00734489
0.00715864
0.00757448
0.00795202
0.00853607
0.00928432
0.0102086
0.0107503
0.0110636
0.0121469
0.0116756
0.00713613
0.00741918
0.0079389
0.00880741
0.00989719
0.0109026
0.011536
0.0119338
0.0128586
0.0125685
0.00674543
0.00724321
0.00799602
0.00902462
0.0103887
0.011633
0.0122668
0.0128579
0.013602
0.0135879
0.00660259
0.00700352
0.00781452
0.00902257
0.0105927
0.0121546
0.0130581
0.0136326
0.0144372
0.0146278
0.00629959
0.00672686
0.0074733
0.00868987
0.0104186
0.0123215
0.013658
0.0143333
0.0149518
0.0151458
0.00608741
0.00638649
0.00700342
0.00811619
0.00983884
0.0119863
0.0137286
0.014754
0.015382
0.0155572
0.00594094
0.00609881
0.00654413
0.00739313
0.00890711
0.0110661
0.0133019
0.0146766
0.0156886
0.0163464
0.00587326
0.00589022
0.0061797
0.00679969
0.0078712
0.00959475
0.0119438
0.013929
0.0152418
0.0160299
0.00590952
0.0058245
0.00593618
0.00636469
0.00714325
0.00831813
0.00981894
0.0115509
0.0129397
0.0136554
0.00610548
0.00590198
0.00588056
0.0060778
0.00660839
0.00755938
0.00878161
0.00966196
0.00948805
0.00885244
0.00732757
0.00775641
0.00792673
0.00821596
0.0087339
0.0096346
0.0108921
0.0120122
0.0114873
0.0113036
0.00711537
0.00743853
0.00793471
0.00867719
0.00969201
0.0108946
0.0117668
0.0126548
0.0128899
0.0123852
0.00668245
0.00731201
0.00808924
0.00916058
0.0105451
0.0118684
0.0127151
0.0135584
0.0143055
0.0137889
0.00652705
0.00709732
0.00802632
0.00933514
0.0110291
0.0126649
0.0137303
0.0146963
0.0155817
0.0151066
0.00632616
0.00688259
0.00780555
0.0092696
0.0112184
0.0132114
0.0145946
0.0156357
0.016483
0.0162433
0.00617849
0.00656942
0.00745924
0.00898436
0.0111546
0.0134763
0.015254
0.0166981
0.0173646
0.0173186
0.0061241
0.0062727
0.00704202
0.00853518
0.0107946
0.0134698
0.015933
0.0172625
0.0178642
0.0178957
0.00630157
0.00612127
0.00661074
0.00797538
0.0101774
0.0131123
0.0161879
0.0182945
0.0191829
0.0194399
0.00665486
0.00626548
0.00630521
0.0073418
0.00930895
0.012058
0.0156641
0.0180572
0.019249
0.0205136
0.0068125
0.00639224
0.00624748
0.00682759
0.00842038
0.0109601
0.0140206
0.0163645
0.0162955
0.0152596
0.00770863
0.00782273
0.00795376
0.0082082
0.00870737
0.00992473
0.013101
0.0126362
0.0110274
0.0132097
0.00714078
0.00754564
0.0080749
0.00889628
0.0100922
0.0122553
0.0145414
0.0137185
0.01201
0.0135435
0.00681411
0.00757525
0.00852607
0.00981721
0.0115807
0.0142943
0.0156107
0.0150258
0.0131116
0.014008
0.00670774
0.00750968
0.00879011
0.0105259
0.0129018
0.015752
0.016683
0.0163058
0.0144001
0.0147033
0.00667483
0.00748685
0.00892499
0.0110873
0.0141823
0.0169391
0.0177452
0.0176558
0.0158091
0.0154966
0.00673698
0.00735384
0.00896732
0.0115716
0.0154069
0.0179643
0.0188014
0.0188979
0.0171802
0.0164357
0.00697269
0.00723188
0.0088871
0.0120941
0.0167075
0.0190734
0.0198513
0.0199793
0.0185681
0.017621
0.00765541
0.00719082
0.00865773
0.0124009
0.0175999
0.0201096
0.0209405
0.0211102
0.0200066
0.0189357
0.00808768
0.00761578
0.0084301
0.0123764
0.0182439
0.0208299
0.0217182
0.0219727
0.0211814
0.0205544
0.0082948
0.00780962
0.00845549
0.0119048
0.0181123
0.0215782
0.0235354
0.0241378
0.0242084
0.023686
0.00807099
0.00800165
0.00816941
0.0085819
0.00919686
0.0120039
0.0115701
0.0107953
0.0140464
0.0269518
0.00748904
0.00812839
0.00918159
0.011046
0.0127952
0.0135615
0.0126301
0.0123721
0.0177819
0.0282812
0.00766614
0.00902202
0.0114864
0.0137785
0.0146255
0.0146893
0.0139588
0.014152
0.021688
0.0282158
0.00787112
0.00977814
0.0133028
0.0153577
0.0159705
0.0157516
0.0152206
0.0159024
0.0239209
0.0275456
0.00822565
0.0104761
0.0145101
0.0165653
0.0171219
0.0168855
0.0164288
0.017469
0.0247946
0.0274085
0.00864337
0.0108975
0.0153653
0.0175672
0.0181246
0.0180024
0.0175985
0.0184459
0.0248662
0.0272589
0.00907869
0.0110292
0.0159289
0.0184067
0.0190399
0.0190584
0.0186352
0.0189821
0.0246274
0.026957
0.00964635
0.0107924
0.0161003
0.0191141
0.0199721
0.020145
0.0198041
0.0197829
0.0242391
0.026299
0.0102981
0.0109135
0.0161102
0.0196309
0.0208263
0.0210832
0.0207143
0.020549
0.0235517
0.0260185
0.011879
0.0116684
0.0165312
0.0201937
0.0214251
0.0218638
0.0219347
0.0215759
0.0231773
0.0254534
0.00852209
0.00861014
0.00888467
0.00899337
0.00962722
0.0108921
0.0111841
0.0151624
0.0293616
0.0307811
0.00876149
0.00987072
0.0105577
0.0109367
0.0119995
0.0124982
0.013329
0.0225095
0.029029
0.0275055
0.0105016
0.0122595
0.0130571
0.0134127
0.014028
0.0146027
0.0180886
0.0261446
0.0272783
0.0196965
0.0118468
0.0140897
0.0148863
0.0151746
0.0156478
0.0169624
0.0231187
0.0258857
0.0231203
0.016052
0.0131996
0.0154546
0.0163279
0.0167008
0.017462
0.0199365
0.0244127
0.025047
0.0197483
0.0143787
0.0142255
0.0165828
0.017548
0.0180178
0.0190594
0.0219744
0.0245091
0.0241956
0.0176729
0.013831
0.0149138
0.0172931
0.0183823
0.019104
0.020329
0.0230794
0.0245264
0.0234185
0.0170714
0.0139459
0.0154034
0.0180083
0.0192713
0.0200944
0.0213199
0.023683
0.0245792
0.0232463
0.0172707
0.014375
0.0155972
0.0181201
0.0196674
0.0207667
0.0220922
0.0240547
0.0247213
0.0234215
0.0177954
0.0148998
0.0160748
0.0184379
0.0203102
0.0214643
0.0226605
0.0242968
0.0248865
0.024053
0.0191298
0.0161176
0.0101583
0.0103227
0.00998201
0.0100522
0.0112441
0.0128033
0.0194899
0.0293902
0.0298472
0.029301
0.0105456
0.0110359
0.0109574
0.0116752
0.0134333
0.0165999
0.0262639
0.0292476
0.0285342
0.0264824
0.0118786
0.0125906
0.0128823
0.0138957
0.0164342
0.0237405
0.0279111
0.0283126
0.0240556
0.0198078
0.0136464
0.0143845
0.0149251
0.0164881
0.0208125
0.0264916
0.0275837
0.0252258
0.0188597
0.0161772
0.0150284
0.0158104
0.016683
0.0189683
0.0244761
0.0266691
0.0266298
0.0210225
0.0162192
0.0142579
0.0164346
0.0173285
0.0185904
0.0214338
0.0256455
0.026593
0.0245481
0.0179213
0.0146965
0.0131928
0.0172813
0.0182851
0.0198174
0.0232146
0.0261044
0.0263707
0.0229203
0.0164786
0.0138581
0.0126555
0.0181407
0.0193552
0.0211478
0.024435
0.0261444
0.0258787
0.0212455
0.0156088
0.013381
0.0124096
0.0185564
0.019819
0.0216118
0.024874
0.0262142
0.0259124
0.0212527
0.0156332
0.0132848
0.0123705
0.0189137
0.0203694
0.0223619
0.0253765
0.0264068
0.0261508
0.0220995
0.0160797
0.0133571
0.0124495
0.0110356
0.0111726
0.0110838
0.0116994
0.0134871
0.0162398
0.0258642
0.0274568
0.026615
0.0269887
0.0111533
0.0116287
0.0117802
0.0130432
0.0158496
0.0206522
0.0275961
0.0282101
0.0278354
0.0279533
0.0119123
0.0126546
0.0132023
0.0149758
0.0186315
0.0255752
0.0281855
0.0281873
0.0276192
0.027402
0.0137042
0.0142869
0.0149654
0.0173545
0.0232684
0.0276459
0.0284476
0.027944
0.0267749
0.0246884
0.0152768
0.0156521
0.0169558
0.0206324
0.026467
0.0283031
0.0284031
0.0272689
0.0248339
0.0212353
0.0169384
0.0174718
0.0193208
0.0239566
0.0278235
0.0285192
0.0280592
0.0256535
0.0221709
0.0185593
0.0179646
0.0186
0.0211867
0.0263387
0.0284173
0.0286129
0.0276415
0.0243646
0.0206557
0.0175661
0.0187509
0.0200786
0.0231856
0.0275848
0.0286558
0.0286365
0.0267402
0.0232197
0.0197877
0.0163382
0.0192955
0.0205266
0.0240993
0.0281002
0.0289091
0.0287541
0.0267419
0.0229894
0.0190663
0.0160535
0.0196848
0.0213547
0.0250757
0.0286485
0.0290769
0.0289126
0.027296
0.0234852
0.0190794
0.0151123
0.0128676
0.0131789
0.0135755
0.0147963
0.0157349
0.0189793
0.0220436
0.0209041
0.0207898
0.0215748
0.0133605
0.0139869
0.0146681
0.0163035
0.0177904
0.020787
0.0227433
0.0217812
0.0214041
0.0217531
0.0151984
0.0154063
0.016332
0.0181317
0.0200347
0.0225059
0.023471
0.0221586
0.0217386
0.0221857
0.0179735
0.0176072
0.0185936
0.020516
0.0225935
0.0235802
0.0236497
0.0222624
0.0221379
0.0227584
0.0209975
0.0201742
0.0210717
0.0229318
0.024046
0.0242644
0.0235735
0.0224895
0.0225305
0.023327
0.0229519
0.0226282
0.023386
0.0245225
0.0251557
0.0245768
0.0236706
0.0230037
0.0233907
0.024494
0.023826
0.0238554
0.02488
0.0259779
0.0260348
0.0251598
0.0240207
0.0238421
0.0243045
0.0258297
0.0249702
0.0251293
0.0262435
0.0273327
0.0272045
0.0259675
0.0250132
0.0250859
0.025701
0.0263521
0.0253193
0.0255581
0.0266643
0.0281712
0.0283446
0.0277202
0.0261076
0.0258643
0.0263169
0.027021
0.0256762
0.0261771
0.0275266
0.0291047
0.0294993
0.0293411
0.0286542
0.0272461
0.0273162
0.0264683
0.0223005
0.024559
0.0252692
0.0260077
0.0262032
0.0264083
0.0239488
0.0224241
0.0223691
0.0223874
0.0240328
0.0241242
0.0251635
0.0262587
0.0267798
0.0273474
0.0274326
0.0260791
0.0250694
0.0244382
0.0247654
0.0247167
0.0252389
0.0262225
0.026788
0.0274347
0.0284693
0.02848
0.0278121
0.0260873
0.0250571
0.0249282
0.025228
0.0261548
0.0265292
0.0270939
0.028105
0.0293911
0.0292677
0.0283489
0.0243287
0.024019
0.0243477
0.0254327
0.0263522
0.0269884
0.0275324
0.0291331
0.0298812
0.0291083
0.0224594
0.0228979
0.0239452
0.025205
0.0260131
0.0266378
0.0271808
0.0285839
0.0300865
0.0287
0.0216736
0.0225717
0.023912
0.0251763
0.0258967
0.0265441
0.0270037
0.027925
0.0300223
0.028716
0.0213302
0.0225135
0.0239282
0.025189
0.0258475
0.0266976
0.0271075
0.02778
0.029884
0.0288782
0.0212926
0.0228434
0.0242213
0.0253904
0.0262666
0.0278039
0.0279291
0.0281205
0.0295578
0.0292043
0.0219778
0.0238443
0.0251331
0.0262505
0.0286881
0.0302451
0.0300979
0.0292034
0.0298321
0.0288059
0.0219715
0.0220567
0.0217327
0.0216393
0.0216938
0.0220227
0.0226771
0.0232106
0.0234291
0.0241008
0.0208334
0.0204646
0.0204551
0.0205265
0.0208006
0.0213796
0.0219553
0.0225418
0.0229182
0.0236765
0.0200409
0.0196719
0.0195898
0.0198511
0.0204244
0.0211054
0.0216894
0.022286
0.0226865
0.0235318
0.0186988
0.0185716
0.0188817
0.0196319
0.0203376
0.0210597
0.0216438
0.0222228
0.0226262
0.0234876
0.0177672
0.0181037
0.0187487
0.0196607
0.0205979
0.0215604
0.022106
0.0224039
0.0226966
0.023514
0.0173702
0.0180483
0.0189515
0.0204188
0.0218643
0.0230518
0.0234998
0.023449
0.0233496
0.0241384
0.0174001
0.0185651
0.0201938
0.0223456
0.024217
0.0250186
0.0248983
0.0245132
0.0239245
0.0245522
0.0186091
0.0201098
0.0225903
0.0253493
0.0260485
0.0258875
0.0253548
0.0246418
0.0241495
0.0247268
0.0197025
0.0218102
0.0252784
0.0268512
0.026691
0.0261675
0.0250748
0.0240903
0.0240287
0.0254033
0.0200616
0.0233523
0.0265647
0.0274993
0.0268792
0.0257877
0.0243299
0.0242079
0.0244216
0.0240713
0.0215663
0.0218101
0.0218604
0.0218467
0.0218051
0.0217119
0.0216357
0.0214789
0.0209554
0.0183817
0.0213031
0.0216048
0.0217053
0.0216775
0.0215785
0.021364
0.0212359
0.0210364
0.0204187
0.0190009
0.0211882
0.0215506
0.0216488
0.0216109
0.0214777
0.0211921
0.0209739
0.020638
0.0195906
0.018418
0.0211054
0.0215313
0.0216353
0.0215967
0.0214463
0.0211384
0.0207619
0.0199953
0.0181892
0.0167502
0.0210808
0.0215939
0.0217004
0.0217097
0.0215719
0.0211517
0.0201915
0.0181224
0.015619
0.0137556
0.0211226
0.0217063
0.0218132
0.0220011
0.0218861
0.0209572
0.0184222
0.0153122
0.0133729
0.0123256
0.0211986
0.0218096
0.0219917
0.0224884
0.0220957
0.0195821
0.0162
0.0139347
0.0124549
0.0116958
0.0212306
0.0218931
0.0221318
0.022857
0.0219617
0.0179682
0.0151787
0.0134025
0.0121707
0.011551
0.0211934
0.0219182
0.0221869
0.0228959
0.0212504
0.0169651
0.014718
0.013571
0.0130176
0.0125709
0.0210754
0.021868
0.0215928
0.0221364
0.0200974
0.0165723
0.015067
0.0141075
0.0135917
0.013128
0.0207269
0.0205591
0.0201644
0.0197134
0.0192063
0.0187139
0.0172692
0.0161248
0.0170438
0.0168148
0.0203466
0.0202434
0.0199288
0.0194022
0.0187979
0.0180855
0.0164902
0.0158967
0.0166426
0.0164145
0.0197817
0.0196403
0.0192766
0.0187484
0.0181468
0.0173116
0.0159993
0.015312
0.0163544
0.0164486
0.0194012
0.0193507
0.0189654
0.0184275
0.0178114
0.0168281
0.015548
0.0148375
0.0155572
0.0161583
0.0190204
0.0188414
0.0182981
0.0179119
0.0172732
0.0161488
0.0150124
0.0144983
0.0147706
0.0152276
0.018687
0.0183834
0.0179425
0.0176652
0.0169328
0.0155258
0.0145526
0.0141345
0.0140565
0.0140402
0.0183208
0.0177307
0.0173825
0.0173015
0.016394
0.0151051
0.0142015
0.0137136
0.0133852
0.0130408
0.0178817
0.0172056
0.0169643
0.016981
0.0161782
0.0148491
0.0139126
0.0133147
0.0127996
0.0123746
0.0174412
0.016596
0.0163092
0.0166418
0.0160472
0.0146551
0.0137783
0.0131709
0.0126395
0.0121064
0.0170982
0.0161264
0.015982
0.0162734
0.0157062
0.0145927
0.0137398
0.0130542
0.0123723
0.0115612
0.0182158
0.0191887
0.0191339
0.0189223
0.018476
0.0188546
0.0193856
0.0214099
0.0218652
0.0177183
0.017896
0.0188989
0.0190146
0.0188
0.0181141
0.018266
0.018728
0.0199703
0.0219917
0.020744
0.0176345
0.0186528
0.0187049
0.0184702
0.0177372
0.0176591
0.0179855
0.0187247
0.0210854
0.0214818
0.017511
0.0185309
0.0185575
0.0182443
0.0173664
0.0169824
0.0173031
0.0180413
0.0199857
0.0212248
0.0174518
0.0184023
0.0182672
0.0177728
0.0167946
0.0162849
0.0166117
0.0174555
0.0195898
0.0210168
0.0179017
0.0182747
0.0179891
0.0172035
0.0162033
0.0156394
0.0159762
0.0169877
0.0196473
0.0200721
0.0180972
0.0179921
0.0174943
0.0164298
0.0154448
0.014913
0.0152803
0.0166179
0.0197004
0.0179894
0.0180366
0.0176433
0.0167967
0.0156978
0.0146988
0.0141865
0.014532
0.0159399
0.0195094
0.0189381
0.0176656
0.0170284
0.0161439
0.0149095
0.0138099
0.0133703
0.0136412
0.0146137
0.0180728
0.0190613
0.0172945
0.0166117
0.0153656
0.0139711
0.0129475
0.0126415
0.012852
0.0136125
0.0162826
0.0161099
0.0158334
0.0182415
0.0212474
0.0223034
0.0226478
0.0224411
0.0199764
0.019083
0.0188077
0.0172754
0.0159939
0.0169876
0.0184755
0.0197541
0.0218603
0.0229356
0.0224099
0.0183638
0.01735
0.0165914
0.0153625
0.0162712
0.0175453
0.0185764
0.019376
0.0217228
0.0237003
0.0215486
0.017551
0.0165179
0.0148127
0.0156436
0.0171412
0.018166
0.0187171
0.0194797
0.0219795
0.0257794
0.0189072
0.0169427
0.014543
0.0154371
0.0170207
0.0180549
0.0185046
0.0189173
0.0199248
0.0242002
0.0228078
0.0180444
0.0143996
0.0157261
0.0175237
0.0184448
0.0185061
0.0186866
0.0192929
0.0215489
0.0240908
0.0205582
0.0147219
0.0165742
0.0181659
0.0187207
0.0187879
0.0186349
0.018911
0.02003
0.023767
0.021002
0.01594
0.0178185
0.0192285
0.0193077
0.0190452
0.0184369
0.0185831
0.0193287
0.0229555
0.0225527
0.01781
0.0196113
0.0199223
0.0195393
0.0190344
0.0180993
0.0181823
0.0187462
0.0213995
0.0220909
0.0199613
0.0204501
0.0201677
0.0194152
0.0183462
0.0172321
0.0173446
0.0177892
0.0186714
0.0179487
0.0132659
0.0116647
0.0111463
0.0113312
0.0115718
0.0121766
0.0127711
0.0128706
0.012868
0.0134571
0.0129561
0.0118367
0.0119616
0.0131885
0.0138758
0.0140263
0.0139362
0.0138147
0.0139578
0.0143513
0.012644
0.0126059
0.0144903
0.0153134
0.0154778
0.0154702
0.0154782
0.015859
0.0167382
0.01751
0.0133529
0.0149113
0.0163104
0.0166166
0.0166359
0.0165914
0.0166584
0.0170754
0.0174897
0.0176085
0.0147366
0.0164553
0.0171301
0.0172579
0.0172075
0.0170794
0.0170753
0.01724
0.0172343
0.0161473
0.0153674
0.0169562
0.0175291
0.017551
0.0173965
0.0172216
0.0171208
0.017119
0.0166149
0.0157943
0.0157673
0.0167443
0.0178007
0.0179271
0.0176496
0.0173482
0.017079
0.0168379
0.0162986
0.0157818
0.0157865
0.0163931
0.0177072
0.0182146
0.0181878
0.017642
0.0172298
0.0169343
0.0162402
0.0156092
0.0153705
0.0160378
0.016905
0.0180731
0.0184944
0.0183263
0.017832
0.0174395
0.0163987
0.0162099
0.0149041
0.0157383
0.0164714
0.0174218
0.0182604
0.0184953
0.0190441
0.018788
0.0172094
0.0162986
0.00998389
0.00956619
0.00944137
0.00950241
0.00997088
0.0109433
0.0120202
0.0128619
0.0137171
0.0138992
0.0101054
0.00975769
0.00957112
0.00963879
0.0100812
0.0111143
0.012498
0.0134329
0.0136643
0.0134153
0.0101796
0.00990206
0.0096949
0.00974412
0.0101508
0.0112106
0.0128244
0.0137214
0.0138837
0.013916
0.0103054
0.00998272
0.00981095
0.00986054
0.0102258
0.0112286
0.0129415
0.0139497
0.0142069
0.0143721
0.0106399
0.0101275
0.00993426
0.0099741
0.0103082
0.0112136
0.0129226
0.0140068
0.0142105
0.014377
0.0109531
0.0104786
0.0101564
0.0100882
0.0103477
0.0111385
0.0127531
0.0140283
0.0141589
0.0143362
0.0109558
0.0106206
0.0103595
0.0102212
0.010409
0.0110231
0.0122482
0.0139323
0.0140926
0.0145608
0.0108552
0.0105602
0.0104262
0.0104987
0.0105928
0.011024
0.0117328
0.0134466
0.0138867
0.0144741
0.0108398
0.0106999
0.0106652
0.0109249
0.0110933
0.0112979
0.0116948
0.0126294
0.0131687
0.0138512
0.0108678
0.010843
0.011388
0.0118116
0.0123557
0.0128507
0.0127882
0.0128853
0.013256
0.0135087
0.0107251
0.0105846
0.0102155
0.00973447
0.00911009
0.00882539
0.00876366
0.00864464
0.00871949
0.00886481
0.0105787
0.0103987
0.0103238
0.00997516
0.00948782
0.0088914
0.00855348
0.00866049
0.00868995
0.008634
0.010077
0.0100357
0.010128
0.00998453
0.00967811
0.00913575
0.00852942
0.00858614
0.00858784
0.00842954
0.00953403
0.00955595
0.00954603
0.00965301
0.00959882
0.00940515
0.00856963
0.00846733
0.00843428
0.00829788
0.00916943
0.00904041
0.00920759
0.00906669
0.00911037
0.00928469
0.00885187
0.00847204
0.00834941
0.00823845
0.00909174
0.0087539
0.00875976
0.00892646
0.00872416
0.00859045
0.008834
0.00856617
0.00837653
0.00832064
0.00896464
0.00871356
0.00860572
0.00862696
0.00855665
0.00836644
0.008314
0.00848516
0.00839369
0.00829672
0.00882596
0.00849646
0.00786844
0.00762356
0.00756393
0.00762442
0.00772666
0.00824033
0.00843408
0.00839241
0.00797049
0.0076675
0.00753661
0.0074806
0.00747374
0.00749353
0.00784438
0.00801835
0.00795707
0.00799424
0.00750477
0.00743265
0.00740665
0.00748107
0.00755221
0.00739928
0.00777037
0.00790727
0.00808914
0.0084066
0.00470157
0.00474597
0.00489341
0.0050601
0.0051109
0.00515238
0.00516272
0.00513833
0.00505867
0.00504799
0.00468239
0.00474725
0.00484889
0.00493576
0.0050862
0.00515988
0.00519544
0.00524162
0.00523526
0.00532529
0.0046904
0.00470809
0.00474045
0.00475215
0.00487391
0.00512626
0.00516137
0.00516997
0.00522139
0.00523898
0.00479117
0.00476931
0.00476156
0.00475312
0.00476098
0.0047621
0.00494111
0.00497514
0.00489353
0.0048772
0.00481311
0.00481535
0.00481382
0.00480556
0.00479543
0.004776
0.00476534
0.00483566
0.00490843
0.00485479
0.00482813
0.00481457
0.00480665
0.00479681
0.00479285
0.00478805
0.00477466
0.00477291
0.00478919
0.0047605
0.00477176
0.00478768
0.00479191
0.00478797
0.00478043
0.00477996
0.00477518
0.00476337
0.00475589
0.00471525
0.004825
0.00477314
0.00476545
0.0047661
0.0047598
0.00476071
0.00475839
0.00473807
0.00471734
0.00471623
0.00486202
0.00473202
0.0047336
0.00472818
0.00472073
0.00472445
0.00472494
0.00473555
0.0048089
0.00474778
0.00491281
0.00475442
0.00473873
0.00472855
0.00471669
0.00471135
0.00473209
0.00479876
0.00481977
0.00481184
0.00420524
0.0041603
0.00413766
0.0041428
0.0041666
0.00431239
0.00453782
0.00462454
0.00471399
0.00466348
0.00428385
0.00435287
0.00434843
0.00436868
0.00441465
0.00462458
0.00463326
0.00470994
0.0047082
0.00449743
0.00430758
0.00442802
0.00447025
0.004557
0.00459961
0.00463403
0.00474047
0.00477131
0.0047076
0.00444084
0.00439508
0.00445789
0.00446418
0.00451436
0.00458728
0.00471187
0.00479586
0.00480859
0.00474917
0.00454284
0.0044699
0.00448364
0.00445928
0.00447447
0.00454497
0.00463397
0.00483293
0.00490825
0.00487318
0.00475173
0.00444301
0.00444255
0.00444856
0.00445513
0.00449461
0.00454773
0.00462188
0.00488336
0.00498918
0.00494435
0.00471756
0.00465197
0.0045108
0.00447035
0.00448391
0.00452373
0.00455431
0.00464815
0.00497157
0.00497959
0.0048543
0.00483627
0.00474817
0.00459044
0.00451656
0.00453247
0.00456049
0.0046656
0.00504368
0.00499828
0.00473546
0.00478124
0.0047565
0.0046762
0.00461028
0.00457926
0.0045758
0.00500105
0.00504253
0.00485947
0.00473079
0.0046706
0.00472446
0.0046568
0.00460362
0.00457233
0.00500472
0.00500222
0.00476092
0.00455911
0.00428202
0.00427717
0.00423875
0.00450458
0.00465833
0.00471737
0.00474667
0.00472918
0.00468975
0.00470562
0.00432372
0.00435342
0.00445434
0.00470627
0.00476476
0.00475809
0.00471084
0.00462015
0.00456854
0.00461294
0.00456406
0.00464339
0.00477013
0.00480029
0.00482384
0.00483763
0.00476393
0.00466113
0.00461044
0.00460133
0.00488981
0.00493084
0.00494125
0.00493559
0.00493835
0.00491412
0.0048663
0.00480851
0.0047137
0.00462065
0.00494054
0.0049918
0.0050046
0.00502365
0.0050306
0.00499717
0.0049311
0.00485192
0.00474546
0.00463524
0.00486574
0.00502774
0.00504547
0.00504397
0.00504039
0.00502416
0.00497304
0.0048912
0.00477376
0.00469641
0.00498177
0.00503757
0.0050571
0.0050364
0.00502953
0.00502578
0.00501209
0.00498463
0.00494585
0.00485803
0.00510691
0.00509623
0.00507712
0.00504036
0.00503522
0.00506825
0.00512351
0.00513576
0.00505146
0.00489511
0.00516193
0.00512603
0.00505327
0.00502554
0.005049
0.00513256
0.00515763
0.0051015
0.00494685
0.00476962
0.00512204
0.0050707
0.00500869
0.00499026
0.00502442
0.00507541
0.00503978
0.00491839
0.00473615
0.00463022
0.0107342
0.0108333
0.0109337
0.0110353
0.0111006
0.0110896
0.0110955
0.0111197
0.0111785
0.0113412
0.0106899
0.0108675
0.0109419
0.0109686
0.0110004
0.0110098
0.0110044
0.01099
0.0110265
0.0111303
0.0104391
0.0107351
0.0109358
0.0110348
0.0110373
0.0110244
0.0109946
0.0109558
0.0109532
0.0109979
0.0102275
0.0105124
0.0108132
0.0110081
0.0111145
0.0111117
0.0110677
0.0109846
0.0109653
0.0109706
0.0101626
0.0103604
0.0106621
0.010934
0.0111203
0.0111924
0.0111851
0.0111226
0.0110288
0.0109794
0.0102098
0.0103336
0.0106074
0.0109115
0.011147
0.0112768
0.0112906
0.0112613
0.0111714
0.0110423
0.01038
0.01047
0.0107117
0.0109742
0.0111833
0.0113288
0.0114033
0.0113904
0.0113189
0.0111824
0.010648
0.0107457
0.0109552
0.0111501
0.0113132
0.0114368
0.0114921
0.0114862
0.0114321
0.0112965
0.0110131
0.0110838
0.0112016
0.0113737
0.0115146
0.0115914
0.0115948
0.0115734
0.0115036
0.0113686
0.0113909
0.0114161
0.0114826
0.0116132
0.011729
0.0117498
0.0117261
0.011648
0.0115407
0.0113996
0.0103162
0.0104703
0.0105988
0.0107392
0.0108231
0.0108663
0.0109
0.0109408
0.0110274
0.011212
0.0102968
0.0104919
0.0106196
0.0106668
0.0107197
0.0107704
0.010802
0.0108252
0.0108652
0.0109409
0.0100756
0.0103812
0.0106076
0.0107443
0.0107794
0.0107837
0.0107902
0.0107941
0.0108134
0.0108389
0.0098696
0.010177
0.0104855
0.0107182
0.0108618
0.0108902
0.0108752
0.0108391
0.0108323
0.0108433
0.00982233
0.0100079
0.0103211
0.0106353
0.0108708
0.0109858
0.0110182
0.0109984
0.0109365
0.0108918
0.00989456
0.0100003
0.0102685
0.0105989
0.0108868
0.0110832
0.011158
0.0111581
0.0111318
0.0110507
0.0100722
0.0101494
0.0103672
0.0106625
0.0109416
0.0111643
0.0112859
0.0113217
0.0113111
0.011232
0.0103452
0.0103998
0.0105838
0.0108439
0.0110814
0.0112652
0.011381
0.0114263
0.0114263
0.0113641
0.0106472
0.0106776
0.0107893
0.0109876
0.0112131
0.0113847
0.0114715
0.011495
0.0114867
0.0114238
0.0110355
0.0110334
0.01108
0.011181
0.0113474
0.0115004
0.0115648
0.0115545
0.0115171
0.0114106
0.00988814
0.010065
0.0101957
0.010365
0.0104873
0.0105673
0.0106352
0.0107405
0.010827
0.0110526
0.00990246
0.0100971
0.0102153
0.0103089
0.0104042
0.0104882
0.0105574
0.0106169
0.0107052
0.0107659
0.0097493
0.0100342
0.0102592
0.0104146
0.0104759
0.0105121
0.0105589
0.0106034
0.0106623
0.0107033
0.00956301
0.00989088
0.0101934
0.010419
0.0105836
0.0106649
0.0106876
0.0106838
0.0106985
0.0107292
0.00953254
0.00973131
0.0100917
0.0104011
0.010653
0.0108142
0.0108835
0.0109026
0.0108881
0.0108666
0.00962249
0.00974555
0.0100474
0.0104152
0.0107347
0.0109615
0.0110876
0.0111381
0.011138
0.0111071
0.00979623
0.00990533
0.0101586
0.0105121
0.0108454
0.0111054
0.0112748
0.0113353
0.0113364
0.0113137
0.0100811
0.0101596
0.0103713
0.0106561
0.0109489
0.0111965
0.0113637
0.0114405
0.0114544
0.0114391
0.0103923
0.0104348
0.0105423
0.0107237
0.0109664
0.0112202
0.0114025
0.0114778
0.0114847
0.0114636
0.0108297
0.0108179
0.0107892
0.0108246
0.010954
0.0111764
0.011358
0.0114354
0.0114453
0.0113969
0.00943703
0.0096267
0.00979645
0.00996702
0.0101114
0.0102294
0.0103353
0.0104827
0.0106045
0.010853
0.00949395
0.00967498
0.00980739
0.00993158
0.0100637
0.0101817
0.0103
0.0103973
0.0105217
0.0106031
0.0094302
0.00970228
0.00990924
0.0100414
0.0101461
0.0102332
0.0103277
0.0104067
0.0105019
0.0105718
0.00930926
0.00963662
0.00993981
0.0101939
0.010342
0.010447
0.0105127
0.0105499
0.0105871
0.0106466
0.00928922
0.00955598
0.00991237
0.0102497
0.0105337
0.0106988
0.010799
0.0108565
0.0108758
0.0108891
0.0094021
0.00957814
0.00994809
0.0103422
0.0106783
0.0109358
0.0110889
0.0111516
0.0111732
0.0111746
0.00958009
0.00974462
0.0100994
0.0104909
0.0108448
0.0111224
0.0113001
0.0113784
0.0114129
0.0114097
0.00983187
0.00998629
0.0102628
0.0105567
0.0108756
0.0111636
0.0113671
0.0114719
0.0115197
0.0115185
0.0101386
0.0102501
0.0103702
0.0105283
0.0107527
0.0110324
0.0112861
0.0114218
0.0114582
0.0114493
0.010661
0.0106534
0.0105822
0.0105351
0.0105933
0.0107793
0.0110046
0.0111729
0.0112716
0.01129
0.00899517
0.00920759
0.00938357
0.00956187
0.0097318
0.00988763
0.0100312
0.010221
0.0103856
0.0106549
0.00907011
0.00924236
0.00941198
0.00957976
0.00973749
0.00988896
0.010035
0.0101778
0.0103342
0.0104452
0.00911588
0.00934158
0.00952526
0.00968646
0.00984045
0.0099783
0.0101006
0.0102166
0.0103512
0.0104524
0.00908088
0.00940894
0.00968135
0.00989174
0.0101032
0.0102468
0.0103665
0.0104616
0.0105311
0.0106187
0.00908937
0.00940841
0.00979105
0.0101609
0.0104284
0.0106103
0.0107351
0.0108221
0.0108759
0.0109372
0.00921392
0.00947069
0.00990739
0.0103428
0.0106916
0.010951
0.0111057
0.0111896
0.011241
0.0112565
0.00941105
0.00967166
0.0101132
0.0105147
0.0108672
0.0111526
0.0113414
0.0114349
0.0114934
0.011498
0.00965537
0.0099141
0.0101973