/*--------------------------------*- C++ -*----------------------------------*\
  =========                 |
  \\      /  F ield         | OpenFOAM: The Open Source CFD Toolbox
   \\    /   O peration     | Website:  https://openfoam.org
    \\  /    A nd           | Version:  9
     \\/     M anipulation  |
\*---------------------------------------------------------------------------*/
FoamFile
{
    format      ascii;
    class       volScalarField;
    location    "79";
    object      f15.gas;
}
// * * * * * * * * * * * * * * * * * * * * * * * * * * * * * * * * * * * * * //

dimensions      [0 0 0 0 0 0 0];

internalField   nonuniform List<scalar> 
137980
(
0.00464
0.00483078
0.00532815
0.00607237
0.00682071
0.00719847
0.00728882
0.00730388
0.00740858
0.00752976
0.00446488
0.00463737
0.00501777
0.00565427
0.0065634
0.00721016
0.00734942
0.00736776
0.00740446
0.00748474
0.00442465
0.00454349
0.00478472
0.00522804
0.00591526
0.00685304
0.00732955
0.00737204
0.00727082
0.00706468
0.00428776
0.00436225
0.00452582
0.00482976
0.00531549
0.00590685
0.00664689
0.00710038
0.00713483
0.0068283
0.00417154
0.00420977
0.00431186
0.00450811
0.00482014
0.00523461
0.00569121
0.00616786
0.00645635
0.00641175
0.00405811
0.00406607
0.00412018
0.0042512
0.00443074
0.00471215
0.00501709
0.00531621
0.00554142
0.00560919
0.00398444
0.00396165
0.00397108
0.00404791
0.00416468
0.0043196
0.00453388
0.00475448
0.00492008
0.00502162
0.00395685
0.00391215
0.00390252
0.00392449
0.00401111
0.00410336
0.00421587
0.00436711
0.00449187
0.00460407
0.0039696
0.00390952
0.00388671
0.00388911
0.00392876
0.00402431
0.00411107
0.00419787
0.00427146
0.00435819
0.00406209
0.00396497
0.00393359
0.00392791
0.00393547
0.00398059
0.0040805
0.00417703
0.00424399
0.00434183
0.00441838
0.00467847
0.00519195
0.00589846
0.00665658
0.00711084
0.00725296
0.00730874
0.00750003
0.00776563
0.0042629
0.00450791
0.00490007
0.0056028
0.00658334
0.00717721
0.00733728
0.00738881
0.00751296
0.00773071
0.00421891
0.00441386
0.00471708
0.00524991
0.00604073
0.00701543
0.00735739
0.00741679
0.0074372
0.00751224
0.00409223
0.00421849
0.00442519
0.00483855
0.00539581
0.00618321
0.00701991
0.00726801
0.00728943
0.00705184
0.00397988
0.00406054
0.00419613
0.00447218
0.0048665
0.00538141
0.00603013
0.00668362
0.00687526
0.00677189
0.00388521
0.00392179
0.00400333
0.00416048
0.00444415
0.00477666
0.00517966
0.00560524
0.00592426
0.00602041
0.00382875
0.00382108
0.00386296
0.00392958
0.00410479
0.00433836
0.00459313
0.00486851
0.00510209
0.00524748
0.00382579
0.00377362
0.00378159
0.00382229
0.00387446
0.00402703
0.0042057
0.00438943
0.00454188
0.00468218
0.00386764
0.0037836
0.00376181
0.00378827
0.00381641
0.00385689
0.00396524
0.00408891
0.00418886
0.00430838
0.00396794
0.00385714
0.00380025
0.00380409
0.00383321
0.00386555
0.00390882
0.00397515
0.00404216
0.00416488
0.00424019
0.00456684
0.00505816
0.00574184
0.00657427
0.007122
0.00733984
0.00740799
0.00773031
0.00880149
0.00425745
0.00449877
0.00489246
0.00563985
0.00663331
0.00723953
0.00750144
0.00787995
0.00832516
0.00899904
0.0040833
0.00435817
0.00474697
0.00535108
0.006303
0.00721542
0.00757604
0.00787536
0.00849785
0.00903663
0.00397241
0.00413874
0.00444978
0.00493683
0.00567289
0.006707
0.00744641
0.00776886
0.00826096
0.00856558
0.00385271
0.00395777
0.00418995
0.00454362
0.0050792
0.0058325
0.00680956
0.00742602
0.00771163
0.00777089
0.00376977
0.00380207
0.00393839
0.00419843
0.00456855
0.00507425
0.00573747
0.00646858
0.00687363
0.00702678
0.00371529
0.00370415
0.00374617
0.00392412
0.00416343
0.0044986
0.00491208
0.00539056
0.00579247
0.00605096
0.00368692
0.00365276
0.00365338
0.00371768
0.0038882
0.00408888
0.00434368
0.00463008
0.00487989
0.00511692
0.00367217
0.00363533
0.00362567
0.00362646
0.00371021
0.00385856
0.00400705
0.00417037
0.00429694
0.00444234
0.00372742
0.00365772
0.00365028
0.00365185
0.00365933
0.0037258
0.00385016
0.00397839
0.00405355
0.00416598
0.00421882
0.00453761
0.00494146
0.00555769
0.00637477
0.00705148
0.00733617
0.00710843
0.00755721
0.00808074
0.00429492
0.0045034
0.00489049
0.00561613
0.00659845
0.00745858
0.00778728
0.00784794
0.00815117
0.00869689
0.00405596
0.00436106
0.00481551
0.00552646
0.00658962
0.00765784
0.00817757
0.00853705
0.00896137
0.00921919
0.00395377
0.00414387
0.00453485
0.00517712
0.00621339
0.00755416
0.00844978
0.00895575
0.00954053
0.00971368
0.00378408
0.00393876
0.00425598
0.00477206
0.00561179
0.00692565
0.00829222
0.00895352
0.00954548
0.009788
0.00364483
0.00373717
0.00397992
0.0043671
0.00497986
0.00595295
0.00746559
0.00862169
0.00929872
0.00960355
0.00355075
0.0035843
0.00374724
0.00401725
0.00444325
0.00509115
0.00605171
0.00741662
0.00846334
0.0089579
0.0034842
0.00348189
0.00356469
0.00375809
0.00403963
0.00445337
0.00502648
0.00573157
0.00644059
0.00711615
0.00346047
0.00343757
0.00346269
0.00359043
0.00377529
0.00404435
0.00438494
0.0047393
0.00498993
0.00530995
0.00355911
0.00345311
0.0034509
0.00350253
0.00363841
0.00381012
0.00405874
0.00427394
0.00435531
0.0043252
0.00423811
0.00454808
0.00487462
0.00534262
0.00598229
0.00679746
0.00719964
0.00725561
0.00790288
0.00751846
0.00428989
0.00450135
0.00487461
0.00555253
0.0064757
0.00733084
0.00778994
0.00795547
0.00847201
0.00810665
0.00399321
0.00436859
0.00490488
0.00569895
0.00681945
0.00791471
0.00840201
0.00875478
0.00922654
0.00892855
0.00388497
0.0041627
0.0047294
0.00563849
0.00692378
0.00828249
0.00904158
0.00944986
0.00989134
0.00980792
0.00367383
0.00396857
0.00445859
0.00532293
0.00668758
0.00832288
0.00948051
0.0100212
0.0103238
0.0103354
0.00353638
0.00373892
0.00412706
0.00485598
0.00610675
0.00789914
0.00944471
0.0103093
0.0107173
0.0107805
0.00344832
0.00354093
0.00382558
0.0043493
0.00533515
0.00694458
0.00891442
0.0101896
0.0109316
0.0113447
0.00340963
0.00341294
0.00359967
0.00397321
0.0046372
0.0057747
0.007515
0.00940287
0.0104376
0.0110435
0.00345118
0.00337876
0.00344493
0.00369834
0.0041632
0.00490646
0.00596168
0.00722815
0.00825178
0.00879977
0.00358127
0.00343857
0.0034096
0.00353183
0.00383264
0.00440971
0.00521715
0.00579467
0.00562381
0.00513019
0.00431192
0.00458278
0.00480763
0.00507621
0.00552261
0.00626394
0.00730583
0.00803726
0.00726719
0.00704031
0.00424928
0.00447757
0.00485353
0.00544459
0.00628572
0.00732431
0.00799404
0.00860503
0.00833207
0.00764885
0.00392341
0.00439292
0.00496023
0.00578296
0.00694364
0.00810623
0.00879063
0.0093423
0.00945204
0.00860631
0.00379312
0.00419293
0.00485488
0.00586063
0.00725359
0.0087098
0.00959788
0.010282
0.0105705
0.00962933
0.00365976
0.00402546
0.00464937
0.00572199
0.00731689
0.00907301
0.0102873
0.0110152
0.0113321
0.0104694
0.00356791
0.00379262
0.00437519
0.00544033
0.00714187
0.00919784
0.0109015
0.0118527
0.0121371
0.0114272
0.0035357
0.0036057
0.00406915
0.00507166
0.00678386
0.00914155
0.0113417
0.0122297
0.0124956
0.0118991
0.0036522
0.003521
0.00378638
0.00464194
0.00622575
0.0087046
0.0115552
0.0130335
0.0134321
0.0131469
0.00384943
0.00361893
0.00360378
0.00420925
0.00552475
0.0076586
0.0109516
0.012783
0.0135402
0.0142083
0.00392533
0.00367677
0.00357293
0.00389386
0.00490145
0.00676616
0.00933534
0.011207
0.0109977
0.00987047
0.00452011
0.0046065
0.00476679
0.00499608
0.0053763
0.00637666
0.00888902
0.00793085
0.00671883
0.00828211
0.00423219
0.00452547
0.00493186
0.00555625
0.00650819
0.00835169
0.00988614
0.00847959
0.00724191
0.00840494
0.00398936
0.00453448
0.00522596
0.00622017
0.00769726
0.00992576
0.010724
0.00942811
0.00790523
0.00862368
0.00388097
0.00441086
0.00533544
0.00670863
0.0088014
0.0110546
0.0116107
0.0104349
0.00875843
0.00901055
0.00384297
0.00435089
0.00536898
0.00708307
0.00988154
0.0120261
0.0125011
0.0115562
0.00977967
0.00954363
0.00387089
0.00421844
0.00535054
0.00743891
0.0109569
0.0128999
0.0133606
0.012715
0.0108831
0.010185
0.00402371
0.00413303
0.00524872
0.0078757
0.0120667
0.0138559
0.0142324
0.0137441
0.0119626
0.0110644
0.00449372
0.004117
0.00505262
0.0080873
0.0127614
0.0147127
0.0151338
0.0147923
0.0131907
0.0121071
0.00472545
0.00439833
0.00488577
0.00802574
0.0131391
0.0151395
0.0156359
0.0154283
0.0140124
0.0133469
0.00481216
0.0044709
0.00491144
0.00754708
0.013052
0.0157844
0.0170022
0.0171677
0.0165176
0.0160078
0.00477327
0.00471844
0.00488095
0.00517025
0.0055825
0.00758277
0.00703908
0.00638581
0.00840876
0.0201503
0.00442089
0.00487788
0.00565575
0.00708173
0.0082159
0.00859732
0.00761914
0.00735843
0.0113021
0.022038
0.00451494
0.0055082
0.00748081
0.00914156
0.00963716
0.00936079
0.00853678
0.0085802
0.0149089
0.0220945
0.00458906
0.0059503
0.00883343
0.0103317
0.0106823
0.0100981
0.00947316
0.00992839
0.0171013
0.0216254
0.0047933
0.00637004
0.00974227
0.0112836
0.0116097
0.010955
0.0103696
0.0110626
0.0181548
0.0214821
0.00505484
0.00662392
0.0104083
0.0121211
0.0124572
0.011858
0.0113334
0.0118153
0.0181388
0.0213314
0.00535478
0.00667588
0.0108841
0.0128839
0.0132734
0.0127701
0.0121881
0.0122881
0.0178293
0.0210012
0.00580868
0.00654478
0.0110287
0.0135258
0.0140416
0.0137903
0.0132038
0.0129875
0.0171929
0.0202562
0.00626971
0.00664236
0.0110603
0.0140606
0.0148125
0.0147559
0.0140253
0.0137543
0.0163742
0.0198229
0.00736621
0.00716281
0.0115178
0.0145541
0.0153309
0.0154883
0.0150764
0.0146187
0.015927
0.0187878
0.00507847
0.00514982
0.00533951
0.00540514
0.00577342
0.00642211
0.00647198
0.00934919
0.0224676
0.0246816
0.00520864
0.00609935
0.00655826
0.00673186
0.00729447
0.00750937
0.00798734
0.0151754
0.0224284
0.0221655
0.00661181
0.00800111
0.00842691
0.00850757
0.00864318
0.00880805
0.0116313
0.0196659
0.0212636
0.0153862
0.00766343
0.00937372
0.00977709
0.00978191
0.00979648
0.0106538
0.0163501
0.0195664
0.0181477
0.0118725
0.008718
0.0104257
0.0108951
0.0109632
0.01123
0.0132249
0.0179851
0.0190744
0.0151466
0.0103581
0.00949035
0.0113011
0.0118547
0.0120177
0.0125239
0.0151215
0.0183105
0.0184554
0.0133254
0.00996042
0.00996823
0.0118732
0.0126077
0.0129497
0.0136876
0.0163549
0.018393
0.0178816
0.0126962
0.0100642
0.0103183
0.0124311
0.0133642
0.0138011
0.014571
0.01699
0.0184715
0.0178383
0.0128377
0.0104373
0.0104295
0.0125245
0.0137931
0.0144873
0.0153424
0.0174798
0.0186736
0.0179994
0.0132403
0.0108727
0.0107969
0.012806
0.0143783
0.0151309
0.015931
0.0175883
0.0187691
0.0184963
0.0143086
0.0118719
0.00636298
0.00644856
0.00619432
0.00609546
0.00660347
0.00758978
0.0128714
0.0229435
0.023854
0.0237109
0.00664568
0.00692751
0.00677468
0.00700059
0.00808473
0.0104512
0.0195681
0.0229911
0.0229892
0.0213319
0.00765926
0.00801201
0.00804806
0.00858815
0.0101968
0.0164764
0.021741
0.0224211
0.0194215
0.0151491
0.00899908
0.00937281
0.00952709
0.01042
0.0138114
0.0198911
0.0215482
0.0201289
0.0143092
0.0118365
0.0100456
0.010475
0.0108711
0.0123833
0.0173789
0.0205258
0.0208205
0.0163127
0.011901
0.0102391
0.0111963
0.0117096
0.0123685
0.014511
0.0190091
0.0204878
0.0191644
0.0134938
0.0105685
0.00936911
0.0118521
0.0124568
0.0133807
0.0161569
0.0196724
0.020364
0.0179181
0.0121398
0.00986057
0.00896494
0.0125952
0.0134269
0.0146382
0.0174562
0.01988
0.0201008
0.016429
0.0113151
0.0094657
0.00880411
0.0129786
0.0138558
0.0150494
0.0179263
0.0199966
0.0201736
0.0164491
0.0113364
0.00940166
0.00876028
0.0132705
0.0143704
0.0158847
0.0185898
0.0202626
0.0204645
0.0172169
0.01174
0.00950398
0.00881628
0.00726548
0.0072306
0.00707975
0.0073276
0.00827688
0.0102775
0.0194049
0.0212379
0.0205787
0.0211389
0.00726816
0.00751143
0.00747091
0.00806555
0.0099215
0.0139386
0.0211396
0.021946
0.0218121
0.0222663
0.00776539
0.0081634
0.00835159
0.00943281
0.0121313
0.0189619
0.0218812
0.0220315
0.0218747
0.0219866
0.00914336
0.00943382
0.00967164
0.0112717
0.0162228
0.0211503
0.0221616
0.0219628
0.0213841
0.0198936
0.010311
0.0104159
0.0111082
0.0139963
0.0197501
0.021996
0.0222428
0.0215993
0.020011
0.0162466
0.0117126
0.0119526
0.0131797
0.0169052
0.021314
0.0222527
0.0221254
0.0204566
0.0172632
0.0138723
0.0125327
0.0127867
0.0145538
0.0195372
0.0220765
0.0224557
0.0218683
0.0193407
0.0157845
0.0128893
0.0132131
0.0140938
0.0165123
0.0210118
0.0224221
0.0225437
0.0212556
0.0182655
0.0148213
0.0118768
0.0136632
0.0145326
0.0172939
0.021603
0.0227259
0.022769
0.0212769
0.0179974
0.0141482
0.0116281
0.0139688
0.015254
0.01844
0.0223318
0.0229442
0.02295
0.0217508
0.0184783
0.0141352
0.0108732
0.00869486
0.00890789
0.00912649
0.0099942
0.0106222
0.0136116
0.0165666
0.015591
0.0154597
0.0162907
0.00907319
0.00951372
0.00993552
0.0111001
0.0122804
0.0151455
0.0171947
0.0164261
0.0160917
0.0164439
0.0105054
0.0105783
0.0112481
0.012673
0.0143491
0.0169168
0.0179885
0.0168744
0.0165345
0.0168475
0.0127485
0.0124152
0.0132441
0.0148404
0.0168988
0.0180747
0.0183141
0.0171005
0.0170007
0.0172945
0.015273
0.0144971
0.0153917
0.0172683
0.018457
0.0188438
0.0182562
0.0172953
0.0172849
0.0176626
0.0171622
0.0166493
0.0174332
0.0187508
0.0194947
0.0191041
0.0182824
0.0176641
0.0178875
0.0183201
0.0180278
0.0176909
0.0185473
0.0199218
0.0202432
0.0194775
0.0184487
0.0182384
0.0184346
0.0194936
0.0192021
0.01907
0.0198722
0.0211472
0.0211549
0.0200966
0.0190258
0.0190487
0.0194772
0.0199122
0.0194531
0.0195186
0.0202859
0.0218939
0.0221579
0.0214962
0.0198679
0.0195045
0.0198108
0.0205392
0.0199209
0.0201921
0.0211685
0.0228233
0.0233074
0.023132
0.0222367
0.0206509
0.0205584
0.020198
0.0164058
0.0186351
0.0193392
0.020112
0.0203984
0.0205854
0.0179656
0.0166493
0.0167106
0.0169483
0.0182535
0.0182805
0.019317
0.0203874
0.0210796
0.0218118
0.0218726
0.0203827
0.0194606
0.0189454
0.0190032
0.0189233
0.0194443
0.0204363
0.0211311
0.0216595
0.0228983
0.0231165
0.0225182
0.0208084
0.019232
0.019102
0.0193773
0.0203548
0.0208661
0.0213231
0.0222038
0.0239143
0.0239011
0.023041
0.0183334
0.0180593
0.0184639
0.0196715
0.0206251
0.0211998
0.0216677
0.0232548
0.0242045
0.0231951
0.0167283
0.0171608
0.0181366
0.0194805
0.0203248
0.0209489
0.0213788
0.0225599
0.0241222
0.0222706
0.0161479
0.0169627
0.0181099
0.0194773
0.0202238
0.020903
0.0212747
0.0219865
0.0238299
0.0219031
0.0159439
0.0170103
0.0182891
0.0195984
0.0201932
0.0211021
0.0214817
0.0219641
0.0235765
0.0219564
0.0159514
0.0174082
0.0186413
0.0197965
0.020602
0.0222324
0.0224662
0.0224233
0.023294
0.0220589
0.0167241
0.0184137
0.0195941
0.0206441
0.0230159
0.0250655
0.0250024
0.0240538
0.0236465
0.0213679
0.0167898
0.0167523
0.016328
0.0161994
0.0162134
0.0163916
0.016811
0.0172831
0.0175178
0.0182597
0.0158608
0.0153612
0.0152528
0.0152985
0.0154186
0.0158344
0.0163055
0.0167891
0.0170956
0.0176918
0.0151223
0.0146723
0.0144893
0.0145833
0.0150018
0.0156331
0.0161432
0.0166452
0.0169388
0.0175613
0.0138315
0.0135347
0.0136739
0.0142399
0.01492
0.0156167
0.016168
0.0166706
0.0169367
0.0175281
0.0128509
0.0129834
0.0134119
0.0142558
0.015159
0.0161491
0.0168334
0.0171524
0.0172529
0.0176571
0.0123855
0.0127882
0.0135068
0.0149407
0.0164625
0.0178435
0.0184994
0.0184308
0.0180717
0.018317
0.012259
0.0130815
0.0145999
0.0169099
0.019091
0.0202066
0.020194
0.0198707
0.0189043
0.0188064
0.0130031
0.0144743
0.0171582
0.0202686
0.0212285
0.0212024
0.0208399
0.0202724
0.0192763
0.0190713
0.0143398
0.0165446
0.0201624
0.021943
0.0218677
0.0215274
0.0207217
0.0197597
0.0190649
0.019573
0.0149239
0.0181995
0.0215225
0.0225984
0.0220083
0.0211862
0.0198678
0.0194254
0.019053
0.0179168
0.0157559
0.0162296
0.0164414
0.0165776
0.0166074
0.0166021
0.0165833
0.0164962
0.0160672
0.0134032
0.0154637
0.0160311
0.016315
0.016452
0.0164301
0.0163606
0.0162842
0.0161324
0.0155651
0.0140143
0.01538
0.0160093
0.0162982
0.0164274
0.0163922
0.0162685
0.0161037
0.0158058
0.0148243
0.0135819
0.0153559
0.0160494
0.0163424
0.01648
0.0164223
0.0162519
0.0158998
0.0151142
0.0132312
0.0117268
0.0154617
0.0162482
0.0165156
0.0167159
0.0166458
0.0162676
0.0152459
0.0129002
0.0104581
0.0091612
0.0156831
0.0164303
0.0166979
0.0170725
0.0170144
0.016012
0.0131171
0.0103471
0.00888891
0.00819228
0.015856
0.0166272
0.0170166
0.0176989
0.017266
0.0145026
0.0112057
0.00936198
0.00833206
0.0078404
0.0159796
0.0168176
0.0173078
0.0181646
0.0171348
0.0129065
0.0104381
0.00903463
0.00820963
0.00779569
0.0160137
0.0169009
0.0174389
0.0182404
0.0162659
0.0120385
0.010208
0.00938454
0.0090138
0.00873894
0.0159941
0.0169187
0.0171037
0.0175779
0.0152139
0.0117042
0.0103792
0.00973411
0.00943863
0.00924716
0.0147466
0.0149345
0.0148794
0.0147556
0.0145227
0.0142105
0.013124
0.0118887
0.0122833
0.0122317
0.0143023
0.0145126
0.0145087
0.0144006
0.0141492
0.0136781
0.0124387
0.0116309
0.0121392
0.0119783
0.0139366
0.0141234
0.0140889
0.0139555
0.0136719
0.0131321
0.0120178
0.0112275
0.0119794
0.0120274
0.013632
0.0138438
0.0137906
0.0136708
0.013403
0.0127756
0.0115945
0.0108151
0.0113829
0.0118513
0.0134227
0.013446
0.0133434
0.0133346
0.0130472
0.0121939
0.0110373
0.010506
0.0106998
0.0111479
0.0131659
0.0131023
0.0130572
0.0131846
0.0127972
0.0115358
0.0105618
0.0101561
0.0100624
0.0101111
0.0129162
0.0126079
0.0126097
0.012952
0.0122966
0.0110399
0.010201
0.00972339
0.00948324
0.00925167
0.0125681
0.0122055
0.0122867
0.0127009
0.0120243
0.0107317
0.00988234
0.00932267
0.00891895
0.0086099
0.0122466
0.0117508
0.0118209
0.0123415
0.0118413
0.0104053
0.00965559
0.0091332
0.00873696
0.00830101
0.0120253
0.0114076
0.0116137
0.0120672
0.0114616
0.0102425
0.0094483
0.00886823
0.00835217
0.0076925
0.012457
0.0134155
0.0135914
0.0134521
0.0130807
0.0132564
0.013605
0.0155274
0.0162625
0.0125023
0.012287
0.0131247
0.0133445
0.0133136
0.0128736
0.0128844
0.0131628
0.0140696
0.0163717
0.0154097
0.0120276
0.0129216
0.0131332
0.0130123
0.0125988
0.0124223
0.0126222
0.0131748
0.0153634
0.0161563
0.0119067
0.0128247
0.0129188
0.0128113
0.0123587
0.0119618
0.0121396
0.0126548
0.0143067
0.0159828
0.0118644
0.0127358
0.0127214
0.012514
0.011919
0.0114709
0.0116438
0.0122063
0.0139808
0.0158344
0.0123007
0.0126589
0.0125438
0.0121601
0.0114559
0.0110106
0.0111912
0.0118482
0.0141418
0.01476
0.0125043
0.0124913
0.0122781
0.0116255
0.0109072
0.0104881
0.0106915
0.0115795
0.0141813
0.012463
0.0125322
0.0123636
0.0119132
0.0110517
0.0103362
0.00995414
0.0101608
0.0111006
0.0140131
0.0131959
0.0123982
0.0120912
0.0114045
0.0104716
0.00968867
0.00934816
0.00952416
0.0101566
0.0128705
0.0134857
0.0123366
0.011849
0.0108488
0.00978097
0.00905043
0.00879731
0.00894466
0.00943899
0.0114314
0.0112261
0.010409
0.0123135
0.0150484
0.0159412
0.0163295
0.0162424
0.0144938
0.0139233
0.0138863
0.0125883
0.0104683
0.0114894
0.012856
0.0137109
0.0150887
0.0162822
0.0161136
0.01309
0.0124936
0.0120032
0.0101808
0.0110027
0.0122153
0.0129785
0.0133803
0.0147753
0.0168664
0.0154967
0.0124451
0.0117672
0.00977396
0.0105512
0.0119451
0.0127901
0.0130795
0.0133591
0.0147505
0.0189875
0.0132107
0.0119729
0.00959919
0.0104003
0.0118524
0.0127541
0.0130193
0.0131667
0.0135804
0.0169865
0.0161408
0.0126549
0.00951076
0.0106719
0.0122763
0.013084
0.013163
0.0131515
0.0133105
0.0144801
0.0171024
0.0145202
0.00983183
0.0114638
0.0128386
0.0133519
0.0134053
0.0132305
0.0132524
0.0137003
0.0166957
0.0148237
0.0109793
0.0125494
0.0137393
0.0140293
0.0138708
0.0133631
0.013242
0.0134612
0.0159413
0.0159046
0.0126175
0.0140875
0.0146159
0.0144385
0.0140323
0.0132782
0.0131061
0.0132674
0.0147268
0.0152977
0.0144578
0.0151992
0.015052
0.0145635
0.0136786
0.0127818
0.012725
0.0128315
0.0130155
0.012519
0.00850132
0.0075623
0.00731082
0.00747882
0.00760261
0.00788448
0.00813756
0.0081471
0.00813013
0.00856665
0.00832144
0.00768874
0.00782342
0.0085892
0.00893432
0.00897949
0.0088917
0.00886595
0.00906546
0.00951746
0.00823013
0.00826757
0.00955709
0.010029
0.010086
0.0100697
0.0102234
0.0107477
0.0119679
0.0129642
0.00877499
0.00998277
0.0109714
0.0111819
0.0112229
0.0113248
0.0117361
0.0124989
0.0130837
0.0132713
0.00983738
0.011217
0.0117663
0.0119249
0.0119767
0.012092
0.0124938
0.0128357
0.0128968
0.0120505
0.0101433
0.0114992
0.0121815
0.012301
0.0123292
0.0124417
0.0126402
0.0127631
0.0123953
0.0117629
0.0104512
0.0111941
0.0123029
0.012566
0.0125401
0.0125074
0.0125757
0.0126035
0.0122813
0.0116801
0.0106429
0.0109245
0.0120284
0.0126405
0.0128001
0.0126119
0.0125616
0.0124924
0.0121856
0.0115653
0.0104166
0.01083
0.0113564
0.0123487
0.0128352
0.0128604
0.0127306
0.0126117
0.0122318
0.0119149
0.010127
0.0108285
0.0112664
0.0118976
0.01258
0.0128366
0.0132356
0.0131258
0.0124863
0.0119839
0.00645708
0.00613501
0.00603974
0.00609455
0.00648241
0.00726386
0.00813088
0.00877747
0.00944332
0.00966231
0.00657581
0.00630379
0.00613607
0.00618389
0.00652429
0.0073732
0.00851878
0.00931038
0.00950817
0.00934909
0.00665184
0.00643767
0.00625197
0.00627384
0.00656475
0.00742189
0.00876316
0.00954238
0.0097332
0.00982948
0.00676736
0.00651207
0.00634421
0.00635789
0.00660645
0.00741259
0.00884898
0.00982315
0.0101212
0.0103158
0.00706224
0.00664687
0.00647549
0.00644888
0.00667642
0.00739362
0.00884148
0.0099225
0.0101756
0.01037
0.0073422
0.00695821
0.00667872
0.00656371
0.00672378
0.00734385
0.00872091
0.00995327
0.0101698
0.0103445
0.0073667
0.00708024
0.00684991
0.00669409
0.00678793
0.00726134
0.00832341
0.00987212
0.0101337
0.0104233
0.00731407
0.00704776
0.00689641
0.00690366
0.00693407
0.00725215
0.00786342
0.00946992
0.00997109
0.0103454
0.00729059
0.0071417
0.00706359
0.0071735
0.00727172
0.00742448
0.00775554
0.00853815
0.00928561
0.00994222
0.00727921
0.00723534
0.00756548
0.00777025
0.0081141
0.00847724
0.00844764
0.00857113
0.00902835
0.00934295
0.00704106
0.00689952
0.00664385
0.00626561
0.00577935
0.00556883
0.00553879
0.00547659
0.00552978
0.00562855
0.00695096
0.00681303
0.00677307
0.00652988
0.00614783
0.00569082
0.00541687
0.00547359
0.00549015
0.00542297
0.00661024
0.00658893
0.00665682
0.00657146
0.00636436
0.00594046
0.00539618
0.00539133
0.00538274
0.00527138
0.00618591
0.00624124
0.00625068
0.00634866
0.00631389
0.00616254
0.00544345
0.00532903
0.00529163
0.00517549
0.00586525
0.00582981
0.00598424
0.0058856
0.00592864
0.00606699
0.00571264
0.00534325
0.00524262
0.00513915
0.00581213
0.00559053
0.00561783
0.00576633
0.00562159
0.00553001
0.00570294
0.00546199
0.00526782
0.00518957
0.00571059
0.00554796
0.00549492
0.0055314
0.00547513
0.00533125
0.00528853
0.00540234
0.0053031
0.00517797
0.00560815
0.00538155
0.00490267
0.00470016
0.00464989
0.00470568
0.00480926
0.00519916
0.00532175
0.00526234
0.00497512
0.00472614
0.00460951
0.00456188
0.00455912
0.00458452
0.00489828
0.00512128
0.00524052
0.00518825
0.00457215
0.00450915
0.00448376
0.00453002
0.00460212
0.00450294
0.00482889
0.00534699
0.00559469
0.00544594
0.00262769
0.00266736
0.00279257
0.00293895
0.00298761
0.00302806
0.00304101
0.00303286
0.00296095
0.002949
0.00261008
0.00266633
0.00275378
0.0028274
0.00295576
0.00303138
0.00306693
0.00310538
0.0031074
0.0031819
0.00261267
0.0026267
0.00265408
0.00266229
0.00276246
0.00297239
0.00301543
0.00303371
0.00308066
0.00309662
0.00269481
0.00267404
0.00266694
0.00266138
0.00266781
0.0026769
0.00282223
0.00284676
0.00278509
0.00277259
0.00272339
0.00272277
0.00272017
0.00271125
0.00270132
0.00268552
0.00268737
0.00273963
0.00279396
0.00275253
0.00273728
0.00272554
0.00271851
0.00271086
0.00270414
0.0027006
0.00269217
0.00269333
0.00270603
0.00268459
0.00269151
0.00270433
0.00270843
0.00270592
0.00269886
0.0026969
0.00269329
0.002686
0.00268067
0.00265248
0.00273292
0.00269267
0.00268692
0.00268877
0.00268562
0.00268561
0.00268343
0.00266909
0.00265302
0.00265384
0.00276416
0.00266557
0.00266668
0.0026636
0.00265952
0.00266121
0.00266116
0.00266738
0.00271898
0.00267957
0.00280341
0.00268362
0.00267159
0.00266502
0.00265724
0.00265356
0.00266797
0.00272463
0.00274697
0.00274408
0.00229058
0.00225645
0.00224186
0.002245
0.00225965
0.00235713
0.00250402
0.00256026
0.00263126
0.00259831
0.00234106
0.00239034
0.00239098
0.00240383
0.00242939
0.00256609
0.0025625
0.00261523
0.00262432
0.0024861
0.0023638
0.00243909
0.0024669
0.00252019
0.00254397
0.00256215
0.00264033
0.00266629
0.0026214
0.00245162
0.00240409
0.00245869
0.00246622
0.00249837
0.00254591
0.00262666
0.00268787
0.00269581
0.00265037
0.00251949
0.00243099
0.0024468
0.0024413
0.00246675
0.00252269
0.00258529
0.0027238
0.0027793
0.00274716
0.00265787
0.00243578
0.00243393
0.00243649
0.00244361
0.00248102
0.0025243
0.00257791
0.00276715
0.00283806
0.00279927
0.00263556
0.00259008
0.00248811
0.00245714
0.00246916
0.00250216
0.00252646
0.00259666
0.00282391
0.00282048
0.0027325
0.0027182
0.00265857
0.002548
0.00249397
0.00250725
0.00253008
0.00260793
0.00287495
0.00283239
0.00265704
0.00268192
0.00266545
0.00261088
0.00256402
0.00254174
0.00254429
0.00285795
0.00287639
0.00273751
0.0026585
0.00261551
0.00264588
0.00260084
0.00256459
0.00254593
0.00286827
0.00285713
0.00267971
0.00253427
0.00232671
0.00232883
0.00231479
0.00249481
0.00259764
0.00263344
0.00266293
0.0026633
0.0026465
0.00266933
0.00235357
0.00237138
0.00244261
0.0026115
0.00264758
0.0026364
0.00260163
0.00255367
0.00252513
0.00256103
0.00250198
0.0025555
0.00264461
0.00266295
0.00267434
0.0026826
0.0026312
0.00256893
0.00254147
0.00253936
0.00271501
0.00275223
0.00276363
0.00276026
0.00276093
0.00274144
0.00270966
0.00267433
0.00261004
0.00254634
0.00274587
0.00279539
0.00281182
0.00283002
0.00283662
0.00281209
0.00276383
0.00270836
0.00263361
0.00255599
0.00270078
0.00282398
0.00284289
0.00284649
0.00284747
0.00283953
0.00280319
0.00274398
0.00265493
0.00259541
0.00278286
0.00282749
0.00285024
0.00284223
0.00284167
0.00284318
0.00283542
0.00281065
0.00277436
0.00270651
0.00286704
0.00286916
0.00287004
0.00285099
0.00285253
0.00288027
0.00291556
0.00291819
0.00284923
0.00273213
0.00292124
0.00290626
0.00286087
0.00284572
0.002867
0.00292997
0.00294654
0.00290254
0.00278486
0.00265125
0.0029058
0.00287843
0.00283833
0.00282599
0.00285175
0.00289341
0.00287145
0.00278804
0.00264962
0.00256275
0.00746176
0.00749941
0.00754769
0.00760435
0.007651
0.00763278
0.00761957
0.00762864
0.00766438
0.00779471
0.00742486
0.00753406
0.00755802
0.00755219
0.00755217
0.00754573
0.00752275
0.00750064
0.00752517
0.00758978
0.007214
0.00742809
0.00755738
0.0076036
0.00759186
0.00755431
0.0075131
0.00746753
0.00745227
0.00747891
0.00702156
0.00723494
0.00745635
0.00758777
0.00764792
0.00763514
0.0075748
0.00749098
0.00745898
0.00745505
0.00696628
0.00709561
0.00732426
0.0075281
0.0076588
0.00770004
0.0076872
0.00761251
0.00751147
0.00745911
0.0069968
0.00707163
0.00726772
0.00750349
0.00768284
0.00777236
0.007776
0.00774559
0.00764049
0.00751118
0.00713121
0.0071826
0.00734969
0.00755378
0.00771342
0.00781985
0.00787046
0.00785467
0.0077756
0.00763178
0.00735646
0.00741554
0.00756377
0.007709
0.00782494
0.00791517
0.00794856
0.00793749
0.00787516
0.0077309
0.00767319
0.00771811
0.00779346
0.0079032
0.00800116
0.00804036
0.00803431
0.00800486
0.00792836
0.00779291
0.00802277
0.00802655
0.00804558
0.00811278
0.00818274
0.00817947
0.008151
0.00806884
0.00796472
0.00782882
0.00711345
0.00720541
0.00728805
0.00738027
0.00744113
0.00746079
0.00747189
0.00748913
0.00754179
0.00768404
0.00708877
0.00722484
0.00730005
0.00731171
0.00733018
0.00735397
0.00736321
0.00737273
0.00739314
0.0074393
0.00688538
0.00712321
0.00728711
0.00736674
0.00737358
0.00736266
0.0073494
0.00733677
0.00734202
0.00735093
0.00669224
0.00693015
0.0071706
0.00734403
0.00743712
0.0074423
0.00742158
0.00737241
0.00735076
0.00735084
0.00665046
0.00676793
0.00701243
0.00725985
0.00744053
0.00752097
0.00753461
0.00751075
0.00743813
0.00738392
0.0067003
0.00676032
0.00694415
0.00720726
0.00743813
0.00759381
0.00764736
0.00764526
0.00761402
0.00751995
0.00684213
0.00688016
0.00701813
0.00724982
0.00747187
0.00765375
0.00775283
0.00777562
0.00776345
0.00768526
0.0070673
0.00709598
0.00721347
0.00740978
0.00759143
0.00773615
0.00783148
0.00786347
0.00786077
0.0078
0.00732789
0.00734408
0.00741426
0.00755252
0.00771818
0.0078436
0.00790726
0.00792259
0.0079127
0.00785087
0.00768244
0.0076696
0.00769195
0.00774724
0.00786665
0.00797388
0.00800297
0.00798763
0.0079465
0.00784259
0.00676627
0.00688349
0.00696849
0.00708534
0.00717559
0.00722616
0.00726292
0.00732118
0.0073768
0.0075468
0.00676731
0.00690637
0.00697819
0.00702483
0.00707716
0.00712675
0.00716752
0.00720041
0.0072621
0.00729425
0.00661542
0.00684023
0.00700059
0.00710156
0.00712616
0.00713813
0.00715735
0.00717877
0.00721548
0.00723713
0.00642612
0.00668824
0.00692457
0.00708969
0.00720366
0.00725275
0.0072522
0.00723915
0.00724192
0.0072537
0.00639277
0.0065212
0.00680427
0.00704586
0.00724111
0.00736421
0.00741418
0.00741618
0.00739746
0.00735938
0.00645299
0.00652327
0.00672766
0.00702284
0.00728209
0.00746836
0.00756907
0.00760767
0.00760753
0.00757298
0.0065881
0.00664444
0.00680183
0.00707773
0.00734948
0.00756723
0.0077077
0.00777011
0.00777254
0.00774653
0.0068238
0.00686375
0.00699493
0.00721193
0.0074379
0.00763998
0.00777842
0.00785172
0.00786774
0.00785079
0.00708871
0.00711167
0.00717658
0.00730293
0.00748239
0.0076767
0.00782307
0.00789016
0.00789735
0.00787671
0.00747024
0.00745637
0.00741839
0.00743747
0.00751729
0.00768875
0.00782719
0.00788096
0.00787947
0.00783185
0.00640544
0.0065368
0.00665357
0.00677448
0.00687834
0.00695266
0.00701873
0.00710938
0.00719239
0.00738127
0.00644155
0.00656886
0.0066519
0.00671973
0.00680086
0.00687805
0.0069568
0.00701754
0.00710876
0.00715637
0.00636891
0.0065718
0.00671555
0.00679668
0.00685487
0.00690584
0.00696679
0.00701644
0.00707971
0.00712502
0.00622355
0.00648797
0.00671503
0.00690042
0.00699858
0.0070655
0.00710348
0.00712249
0.00714375
0.00718159
0.00618613
0.00637119
0.00665031
0.00691262
0.00713302
0.00725855
0.00733303
0.00737345
0.00738249
0.00737819
0.00625799
0.00636385
0.00662628
0.0069386
0.00720889
0.00742341
0.00755708
0.00761373
0.00762685
0.00762297
0.00638695
0.00648334
0.00671796
0.00702524
0.00731301
0.00755318
0.00771535
0.00778666
0.00781951
0.00781839
0.00659013
0.0066776
0.00687172
0.0070949
0.00734114
0.00757498
0.00775547
0.00785262
0.00789803
0.00790362
0.0068523
0.00692982
0.00700937
0.00711887
0.00728025
0.00749693
0.00770334
0.0078241
0.00786029
0.00785805
0.00729967
0.00729438
0.00723137
0.00717181