/*--------------------------------*- C++ -*----------------------------------*\
  =========                 |
  \\      /  F ield         | OpenFOAM: The Open Source CFD Toolbox
   \\    /   O peration     | Website:  https://openfoam.org
    \\  /    A nd           | Version:  9
     \\/     M anipulation  |
\*---------------------------------------------------------------------------*/
FoamFile
{
    format      ascii;
    class       volScalarField;
    location    "79";
    object      f17.gas;
}
// * * * * * * * * * * * * * * * * * * * * * * * * * * * * * * * * * * * * * //

dimensions      [0 0 0 0 0 0 0];

internalField   nonuniform List<scalar> 
137980
(
0.00170914
0.00180319
0.00204577
0.00245336
0.00291057
0.0031424
0.00318563
0.00319294
0.00322627
0.00326435
0.00164256
0.00172081
0.00188543
0.00220128
0.00270766
0.00310168
0.00318158
0.00318384
0.00318361
0.00319316
0.00163444
0.00168762
0.00178833
0.00199139
0.00233034
0.00284843
0.00312486
0.00314515
0.00305151
0.00291514
0.00156532
0.00159684
0.00166346
0.00179977
0.00201603
0.00232207
0.00271659
0.00297331
0.00299156
0.00278413
0.00150439
0.00152107
0.00156225
0.00164933
0.00178087
0.00197855
0.00220705
0.00245286
0.00261127
0.00259758
0.00144085
0.00144507
0.00146565
0.00152235
0.00160561
0.00172009
0.00186939
0.00201951
0.00212798
0.00217244
0.00139753
0.00138716
0.00138861
0.00141831
0.00147571
0.00154752
0.001634
0.00173749
0.0018174
0.00187701
0.00137826
0.00135915
0.00135375
0.0013609
0.00139578
0.0014491
0.00150505
0.00157498
0.00161945
0.00167032
0.00137745
0.00135349
0.00134433
0.00134547
0.00136034
0.00140464
0.00145578
0.00150058
0.00152684
0.00156278
0.00141254
0.00137122
0.00136074
0.00136012
0.00136372
0.0013844
0.00143221
0.00147529
0.00150497
0.00155152
0.00158871
0.00170694
0.0019594
0.0023496
0.0027986
0.00305374
0.00312981
0.00315464
0.00323867
0.00336013
0.00152373
0.00163022
0.00180456
0.00215059
0.00270961
0.0030666
0.00315754
0.00318599
0.00323076
0.003318
0.00150773
0.00159797
0.00172718
0.00197106
0.00237696
0.00293264
0.00313168
0.00315656
0.00314146
0.00314618
0.0014511
0.001505
0.00158854
0.00176453
0.002039
0.00243118
0.00289565
0.00303828
0.00303985
0.00286497
0.00139418
0.0014302
0.00148844
0.00159617
0.0017833
0.00201947
0.00233475
0.0026695
0.00279179
0.00273429
0.00134505
0.00136125
0.00139585
0.00145958
0.00157611
0.00173302
0.00191438
0.00211921
0.00227521
0.00234653
0.00131477
0.00131034
0.00132624
0.00135795
0.00142076
0.00152569
0.00164375
0.00176734
0.00187059
0.00195329
0.00131087
0.00128729
0.00128838
0.001305
0.00133075
0.00138327
0.00146052
0.00154557
0.00161508
0.00168659
0.00132769
0.00129027
0.00127981
0.00128859
0.0013064
0.00132652
0.00136107
0.00140958
0.00144706
0.00150135
0.00136816
0.00131876
0.00129435
0.00129559
0.00130888
0.00133017
0.00135208
0.00137698
0.00139421
0.0014435
0.00147428
0.00162775
0.00186675
0.0022349
0.00272331
0.00305094
0.0031493
0.00314337
0.00326703
0.00390937
0.00149317
0.00160603
0.0017819
0.00215783
0.00273037
0.00309351
0.00323553
0.00341649
0.00362617
0.00399911
0.00141524
0.00154456
0.00171861
0.00200299
0.00249872
0.00303198
0.00324105
0.00339969
0.00373431
0.00401218
0.00136903
0.00144002
0.00156644
0.001792
0.00214328
0.00268216
0.00311876
0.00329798
0.00355443
0.00368911
0.001315
0.00136175
0.00145224
0.00160961
0.00184416
0.00219709
0.00269435
0.00305439
0.00320229
0.00321649
0.0012771
0.00129183
0.00134584
0.00145051
0.00160745
0.00182811
0.00212709
0.00248412
0.00270998
0.00280621
0.00125173
0.00124704
0.00126466
0.00132244
0.00143066
0.00156617
0.00174266
0.00195434
0.00213957
0.00228627
0.00124138
0.00122582
0.00122468
0.00124507
0.00130311
0.00139277
0.00149391
0.00161195
0.00171315
0.00183462
0.00123572
0.00122026
0.00121436
0.00121665
0.00123242
0.00128789
0.00135547
0.00142043
0.00146477
0.00153105
0.00125681
0.00122872
0.00122472
0.00122584
0.00123042
0.00124095
0.00128426
0.00133371
0.00136636
0.00141094
0.00141885
0.00157676
0.00177769
0.00210488
0.00259459
0.00301868
0.00315837
0.0029522
0.00308294
0.00348081
0.00147937
0.00158191
0.00175496
0.0021358
0.00270813
0.00320598
0.00336184
0.00334967
0.00341044
0.00379711
0.00137073
0.0015147
0.00172362
0.00205722
0.00260956
0.00325859
0.00357295
0.00375665
0.00394214
0.00408107
0.00132981
0.00140841
0.00157971
0.00187048
0.00235769
0.00310203
0.00367137
0.00396345
0.00429083
0.0043778
0.001255
0.00132127
0.00145314
0.00167257
0.00204346
0.00266166
0.00350117
0.00392271
0.00426063
0.00438046
0.00120061
0.00123716
0.00132541
0.00148619
0.00174299
0.00217732
0.00287897
0.00364169
0.00405397
0.00423167
0.00116105
0.00117542
0.00122426
0.0013383
0.00150381
0.00176727
0.00219573
0.00282789
0.00345787
0.00379372
0.00113256
0.00113597
0.00116245
0.00122801
0.00133494
0.00149338
0.00172329
0.00202998
0.00234565
0.00270209
0.00111726
0.00111522
0.00112825
0.00115796
0.00123676
0.00132972
0.00145737
0.00159618
0.00168649
0.00183014
0.00115645
0.00111695
0.00112528
0.00114037
0.0011751
0.00124929
0.00133569
0.00141211
0.0014344
0.00142613
0.0013985
0.0015477
0.00173232
0.00198106
0.00236597
0.0028864
0.00310801
0.0030165
0.00322754
0.00301973
0.00146196
0.00156827
0.00173744
0.00209485
0.00264962
0.00319595
0.00342363
0.00340671
0.00353298
0.00328368
0.00131548
0.00149981
0.00174194
0.00215082
0.00280658
0.00352858
0.00380882
0.00392717
0.00408037
0.00377088
0.00125907
0.00138201
0.00163146
0.0020736
0.00281506
0.00370886
0.00416937
0.0043747
0.00454107
0.00428517
0.00117021
0.00129306
0.00149403
0.00187895
0.00259101
0.00365061
0.00441721
0.00471884
0.00483007
0.00457151
0.00111202
0.00118852
0.00134954
0.00163674
0.00221031
0.00321041
0.00433591
0.00486808
0.00506477
0.00499688
0.00108064
0.00110973
0.00122707
0.00142646
0.00181188
0.00256089
0.00382889
0.00474986
0.00515673
0.00531663
0.00106835
0.00106563
0.00113129
0.00127138
0.00152222
0.00201347
0.00287848
0.00412887
0.00477614
0.0050959
0.00109445
0.00105638
0.00107247
0.00117082
0.00133
0.0016181
0.00209371
0.00272631
0.00326901
0.00357141
0.00114743
0.00108143
0.0010626
0.00110445
0.00121178
0.00141293
0.0017372
0.00198138
0.00188626
0.00164775
0.00140353
0.00150019
0.00165766
0.00182768
0.00208569
0.0025607
0.0031825
0.00342194
0.00285207
0.00267856
0.00141856
0.00152541
0.0017033
0.00201889
0.00252191
0.00320299
0.00359341
0.00379163
0.00334316
0.00287955
0.00125308
0.00147405
0.00175353
0.00217751
0.00287283
0.00366944
0.00407881
0.00429467
0.00399524
0.00326291
0.00118402
0.00135276
0.00166613
0.00217498
0.00300351
0.00400695
0.00458697
0.00485669
0.00468867
0.00376716
0.00113236
0.0012764
0.00154492
0.0020509
0.00295744
0.00418714
0.00499217
0.0052808
0.00514901
0.00417944
0.0011044
0.00117332
0.00140664
0.00187587
0.00278808
0.00420786
0.00543539
0.00583398
0.00572881
0.00478674
0.00109505
0.00110969
0.00126807
0.00167752
0.00255195
0.00413028
0.00561934
0.00601614
0.00592404
0.00505439
0.00114207
0.00108371
0.00115606
0.0014749
0.00221602
0.00372968
0.00567387
0.00641799
0.00641235
0.00575666
0.00120753
0.00112247
0.00109658
0.00129404
0.00183504
0.00298281
0.00520146
0.00624501
0.00657389
0.00675295
0.00122341
0.00113713
0.00108754
0.00118215
0.00155897
0.00246912
0.00404336
0.00519597
0.0049726
0.00411265
0.0014609
0.00149141
0.00158939
0.00173161
0.0019315
0.00252368
0.00398175
0.00309189
0.00246784
0.00333172
0.00137775
0.00151973
0.00172465
0.00204417
0.00259115
0.00376979
0.00447298
0.00324881
0.00261864
0.00332056
0.00126558
0.00151063
0.00183671
0.00236854
0.00329153
0.0046562
0.00493906
0.00361925
0.00282906
0.00333869
0.00120128
0.00141169
0.00184406
0.00259427
0.00402128
0.005331
0.00549156
0.00414356
0.00316666
0.00340827
0.00118093
0.0013653
0.00182293
0.00277043
0.00472112
0.00594449
0.00605336
0.00473421
0.00362248
0.00356688
0.00118709
0.00129362
0.00178994
0.00298863
0.00544557
0.00651315
0.00660348
0.00546736
0.00419593
0.0038273
0.00125235
0.00125703
0.00173544
0.00330267
0.00615533
0.00714486
0.00718155
0.00612417
0.00479669
0.0041937
0.00143213
0.00125897
0.00164092
0.00342255
0.0065757
0.00768286
0.00777696
0.00681232
0.00541969
0.00474993
0.00150419
0.00136856
0.00156619
0.00336258
0.00670317
0.00783292
0.00801121
0.00710797
0.00590937
0.00542281
0.00151935
0.00137556
0.00158625
0.00310374
0.00665372
0.00817827
0.00872551
0.00827422
0.00746168
0.00709901
0.00157277
0.00153271
0.00162315
0.00175738
0.00193571
0.0028981
0.00255401
0.00220211
0.00316919
0.0115551
0.00142958
0.00163906
0.00202061
0.00275385
0.00325319
0.00340177
0.00273997
0.00258405
0.00477806
0.0137425
0.00145202
0.00192815
0.00301512
0.0038528
0.00404269
0.00369502
0.003131
0.00318287
0.0073823
0.0140386
0.00145048
0.00209822
0.00373624
0.00448421
0.00459528
0.00402743
0.00360164
0.00393683
0.00919959
0.0137569
0.00152043
0.00228265
0.00422682
0.00502769
0.00513134
0.0044683
0.00405933
0.00459699
0.00995856
0.0136104
0.00161757
0.00238631
0.00461216
0.0055352
0.00564247
0.00498089
0.00459764
0.00490713
0.00986489
0.0133791
0.00174994
0.00239556
0.00493496
0.00607323
0.00621314
0.00555293
0.0050879
0.00511485
0.00947612
0.0129766
0.00197523
0.00231282
0.00504597
0.00651754
0.00672689
0.00623288
0.00568836
0.00544027
0.00867097
0.0121613
0.00217713
0.00235068
0.00509811
0.00699654
0.00736285
0.00695935
0.00625517
0.0059343
0.00774472
0.0115115
0.00271405
0.0026315
0.0054895
0.00734581
0.00769051
0.00744015
0.00687744
0.00641963
0.00729363
0.00985685
0.00169224
0.00171355
0.00180114
0.0018238
0.00195103
0.00216305
0.00216202
0.00361465
0.0134895
0.0162332
0.00172692
0.00216188
0.00235711
0.00239907
0.00254703
0.00257245
0.00289883
0.00721748
0.0143504
0.0145346
0.00246649
0.00319115
0.00331799
0.003238
0.00313034
0.00312812
0.00497076
0.0117535
0.0135326
0.00945932
0.00301663
0.00389027
0.00403153
0.00382697
0.00373769
0.00426364
0.00860075
0.0117737
0.011359
0.00656605
0.0036169
0.00446926
0.00462757
0.00451866
0.00454422
0.00598823
0.0102423
0.011526
0.00906771
0.00547982
0.00404178
0.0049833
0.00517743
0.00511876
0.00532944
0.00743021
0.0106762
0.0110826
0.00773886
0.00522789
0.00429589
0.005347
0.00566163
0.00571645
0.00610473
0.00844615
0.0107524
0.0107524
0.00715607
0.00530627
0.00448835
0.00569509
0.00613735
0.0062532
0.00670827
0.00892252
0.0107909
0.0106724
0.00721493
0.00558246
0.0045127
0.00578565
0.00648891
0.00678109
0.00723119
0.00921508
0.0108702
0.0107565
0.00740204
0.0058644
0.00472438
0.00598374
0.00691019
0.00725686
0.00769276
0.00918624
0.0108565
0.0110231
0.00804588
0.00647238
0.00233628
0.00233482
0.00223815
0.00213661
0.002235
0.00271382
0.00605047
0.0144992
0.01567
0.0156797
0.00245004
0.00255106
0.00243504
0.00242756
0.00279091
0.00427518
0.011371
0.0149431
0.0150975
0.0140134
0.00294907
0.00306951
0.00295847
0.00305481
0.00392276
0.00828008
0.0137086
0.0145566
0.0126391
0.00908416
0.00369999
0.00376376
0.00368125
0.00396425
0.00627366
0.0117308
0.0135816
0.012947
0.00839121
0.00647095
0.00424927
0.0043392
0.00438214
0.00526009
0.00910757
0.0125777
0.0130697
0.0100367
0.00652685
0.00534437
0.00494353
0.00508258
0.00525422
0.00665127
0.0108632
0.0125499
0.0119502
0.00783793
0.00555391
0.00478101
0.00531248
0.00550132
0.00591849
0.007903
0.0115338
0.01248
0.0111424
0.00671779
0.00505103
0.00454275
0.00581419
0.0061917
0.00676875
0.00892149
0.0117607
0.0123318
0.00999628
0.0060633
0.00479728
0.00448219
0.00610713
0.00646049
0.00709146
0.00928812
0.0118759
0.0123908
0.0100081
0.00607718
0.00479816
0.0044483
0.00631345
0.00692219
0.00773034
0.00977733
0.0119911
0.0126167
0.0105609
0.00637236
0.00486299
0.00448487
0.00309493
0.00294956
0.00276151
0.00274984
0.00298979
0.00416802
0.0112802
0.0131547
0.0127181
0.0131616
0.00296283
0.00300581
0.00286084
0.00299071
0.00370743
0.00651544
0.012605
0.0134477
0.013495
0.014373
0.00315544
0.00323441
0.00316544
0.00353035
0.00508629
0.0106266
0.0135302
0.0139567
0.0140908
0.0143479
0.00382332
0.00383827
0.00382252
0.00455328
0.0077362
0.0126954
0.0139062
0.0140055
0.0138362
0.0129759
0.00444553
0.00435317
0.00452055
0.00609603
0.0111383
0.0136382
0.0140649
0.0138317
0.012887
0.00999105
0.00534248
0.0053017
0.00577925
0.00836117
0.0127429
0.0139433
0.0140341
0.0131601
0.0107949
0.00796958
0.00585927
0.00576508
0.00669359
0.0104357
0.0135636
0.0141391
0.0139248
0.0123489
0.0094438
0.0071873
0.00632795
0.00666235
0.0080693
0.0120389
0.0139384
0.0142344
0.0136106
0.0115056
0.00856766
0.0064924
0.00667456
0.00699144
0.00855153
0.012671
0.014236
0.0144416
0.0136379
0.011258
0.00801467
0.00629961
0.00686005
0.00750852
0.0095526
0.0134527
0.0144438
0.0146272
0.0139514
0.0117186
0.0079291
0.00582572
0.00385729
0.00394357
0.00397805
0.00436376
0.00470428
0.00683821
0.00941637
0.00883363
0.00875095
0.0093925
0.00408136
0.00426508
0.004396
0.00496967
0.00565243
0.00793082
0.00986546
0.00942943
0.00919884
0.00951736
0.00488318
0.00481856
0.00512778
0.00594381
0.00718814
0.00948189
0.010515
0.00986116
0.00966249
0.00987047
0.00623333
0.0060022
0.00656796
0.00762946
0.00932558
0.0106083
0.0110164
0.0101745
0.01012
0.0101559
0.0079154
0.00735335
0.00809435
0.00957004
0.0108914
0.0114018
0.0110457
0.0103585
0.0103081
0.0103489
0.00951119
0.00881679
0.0095366
0.0109524
0.0117833
0.0116732
0.0110458
0.0105624
0.0106344
0.0106533
0.0103134
0.00954515
0.010142
0.0117323
0.0123683
0.0118786
0.0110904
0.01086
0.0108727
0.0113655
0.0114721
0.0107605
0.011238
0.0126284
0.0129468
0.0122604
0.0113104
0.0112665
0.0114319
0.0116734
0.0116582
0.0111885
0.0116238
0.0130767
0.0135962
0.0131241
0.0118257
0.0114722
0.0116075
0.0122597
0.0120912
0.0119236
0.012368
0.0137326
0.0144552
0.0143517
0.013564
0.0121795
0.012064
0.0121838
0.00898703
0.010828
0.0113979
0.0120965
0.012435
0.0125772
0.0102143
0.00930848
0.00942745
0.00978396
0.0105938
0.0105741
0.0114221
0.0123159
0.0130644
0.0139441
0.0140231
0.0125069
0.0117356
0.0114744
0.0111966
0.0111024
0.0115266
0.0123982
0.0130649
0.0135241
0.0149232
0.015364
0.0148649
0.0133746
0.011335
0.0112116
0.0114241
0.0123227
0.0129596
0.0132621
0.013942
0.0158586
0.0160409
0.0152722
0.0104035
0.0102186
0.0105984
0.0117094
0.0126155
0.0131394
0.013496
0.0148771
0.015977
0.0150555
0.00942264
0.00970704
0.0103789
0.0115619
0.0123378
0.0129365
0.0132588
0.0141285
0.0156933
0.0136059
0.00916001
0.0095959
0.0103665
0.0115565
0.0122548
0.0129041
0.0132047
0.013706
0.0151636
0.013009
0.00908409
0.00981115
0.0106734
0.0117427
0.0122511
0.0130588
0.013403
0.0137431
0.0148524
0.0130094
0.00913286
0.0101946
0.011095
0.0119761
0.0126509
0.0140944
0.0144094
0.0142502
0.0147223
0.0130207
0.00987455
0.0111041
0.0119119
0.0127239
0.0146895
0.0170494
0.0171959
0.0163262
0.0151261
0.0123548
0.0100121
0.00984689
0.00940684
0.00924177
0.00920601
0.00923839
0.00941899
0.00969388
0.00982907
0.0103212
0.00940376
0.00879678
0.00860635
0.00853745
0.00858179
0.00879833
0.00913761
0.00941559
0.0095764
0.00990117
0.00877452
0.0082624
0.0080021
0.00798978
0.00821218
0.00864312
0.00904053
0.0093619
0.00950546
0.00982766
0.00768556
0.00728359
0.00731608
0.00762716
0.00811852
0.0086443
0.00909466
0.00948526
0.00959026
0.00983769
0.00685147
0.0068515
0.00708179
0.00761259
0.00826321
0.00912112
0.00979342
0.0101108
0.0100661
0.0101021
0.00646108
0.00666518
0.00711242
0.00810014
0.00938672
0.0107248
0.0115177
0.0114471
0.0109596
0.0106823
0.00630957
0.0067976
0.00783171
0.00982
0.0119793
0.0133076
0.0134297
0.0131242
0.0120829
0.0111137
0.00661171
0.00778048
0.0100734
0.0131572
0.0141965
0.0143932
0.0142051
0.0137725
0.0127024
0.0117457
0.00786202
0.00978727
0.0130791
0.0147902
0.0147672
0.0146398
0.0142136
0.0134732
0.0123959
0.0116079
0.00874482
0.0114551
0.0143602
0.0153617
0.0148054
0.014324
0.0135848
0.0129175
0.0119173
0.0100969
0.00833717
0.00897289
0.00932596
0.00953922
0.00965683
0.0097368
0.00978992
0.00975904
0.00950879
0.00718092
0.00813004
0.00884303
0.00925837
0.0094836
0.00957825
0.00959639
0.00958693
0.00952005
0.0091071
0.00770648
0.00810474
0.00888959
0.00933002
0.00956351
0.00960438
0.0095792
0.00950681
0.00929767
0.00848543
0.00737633
0.00818906
0.00910292
0.00951667
0.0097623
0.00974439
0.00964197
0.00935393
0.00862056
0.00678768
0.00560056
0.00850478
0.00939826
0.00976844
0.0100499
0.0100154
0.00967642
0.00866404
0.00633197
0.00467378
0.00400406
0.00881319
0.00966917
0.0100523
0.0104826
0.0104124
0.00935216
0.0064872
0.0047371
0.00390254
0.00356895
0.00913074
0.00996917
0.0104859
0.011195
0.0106648
0.00788387
0.00541673
0.00427841
0.00371153
0.003445
0.00936939
0.0102389
0.0108877
0.0117094
0.0105138
0.00672984
0.00504029
0.00416418
0.00371589
0.00348393
0.00947735
0.0103752
0.0110571
0.0118179
0.00960332
0.00624789
0.00505421
0.00455265
0.00433014
0.00417916
0.00951715
0.0104111
0.0109426
0.0112551
0.00880389
0.00592426
0.00506736
0.00473848
0.00462866
0.00457852
0.00740816
0.00778183
0.00801401
0.00816543
0.00819488
0.00812699
0.00763713
0.00653066
0.00650553
0.00662845
0.00706655
0.007433
0.00764764
0.00784684
0.00791754
0.00780136
0.00716407
0.00625353
0.00648379
0.00641122
0.00693294
0.00727481
0.00747242
0.00768782
0.0077298
0.00755405
0.00687587
0.00606555
0.00642776
0.00645108
0.00683821
0.00709769
0.00726466
0.00754684
0.0076174
0.00734923
0.00652248
0.00575199
0.00608266
0.00635972
0.00676738
0.00691311
0.00707844
0.00747542
0.00746782
0.00697251
0.00597789
0.00549082
0.00555252
0.00595453
0.00665409
0.0067097
0.00693104
0.00745085
0.00735229
0.00636903
0.00552401
0.00518263
0.00512429
0.00523885
0.00651861
0.00645653
0.00674691
0.00738622
0.00697917
0.0058495
0.0052115
0.00487225
0.00474307
0.00467842
0.0063469
0.00621583
0.00662086
0.00720339
0.00664707
0.00554747
0.00493654
0.00452466
0.00429706
0.00414741
0.0061876
0.0059832
0.00635821
0.00688298
0.00641431
0.00518571
0.00467484
0.00432625
0.00413667
0.0038726
0.0060863
0.00579531
0.00626039
0.00669932
0.00604144
0.00492026
0.00438628
0.00400679
0.00375544
0.00336566
0.0057726
0.00639966
0.0067528
0.0067102
0.0065388
0.00655787
0.00669454
0.00801235
0.00887719
0.00619923
0.00558061
0.00625034
0.00651347
0.00659031
0.0064575
0.006377
0.00649695
0.00693923
0.00893851
0.00845985
0.00549316
0.00614455
0.00641178
0.00640596
0.00632251
0.00614253
0.00621234
0.00648561
0.00800305
0.00909822
0.00538907
0.00611467
0.00628305
0.00631355
0.0062073
0.00593838
0.00598188
0.00620277
0.00716471
0.00901374
0.00537486
0.00612236
0.0062213
0.0061826
0.00600926
0.00569882
0.00573836
0.00596609
0.00698384
0.00893886
0.00576522
0.00615191
0.00615405
0.00607237
0.00581234
0.00547165
0.00551024
0.00577005
0.00722189
0.00795446
0.00603863
0.0061537
0.00612017
0.00590879
0.00547679
0.00517586
0.00523499
0.00560684
0.00726371
0.00589387
0.00616651
0.00616356
0.00603726
0.00560484
0.00513961
0.0048815
0.00495658
0.00536887
0.00715441
0.00629022
0.00623041
0.00618126
0.00587405
0.00520882
0.00475002
0.00453749
0.00461615
0.00489513
0.00649501
0.00668726
0.00638022
0.00615893
0.00550676
0.00477879
0.0043825
0.00421825
0.00429262
0.00451377
0.00561206
0.00545054
0.00468249
0.00560016
0.00738256
0.00788802
0.0083314
0.00840217
0.00754727
0.00729594
0.00745461
0.00661356
0.00442131
0.00520306
0.00611187
0.00650908
0.00703366
0.00800929
0.00809917
0.00660767
0.00643955
0.00621027
0.00437653
0.00489913
0.00579617
0.00624272
0.00637501
0.00685656
0.00826991
0.00789371
0.00618066
0.00592094
0.00415626
0.00466451
0.00563779
0.00622141
0.00632395
0.00631638
0.0067636
0.0100366
0.00643723
0.00595522
0.00408337
0.00458294
0.00558287
0.0062507
0.00641466
0.00632541
0.0063561
0.00825034
0.00795059
0.00621549
0.00405752
0.00476526
0.00589563
0.00653006
0.0065986
0.00653731
0.00635706
0.00671619
0.00833063
0.00711562
0.00430297
0.00533
0.00635215
0.00680778
0.00682882
0.00671739
0.00645886
0.00648912
0.00806004
0.00724318
0.0050968
0.00608959
0.00708978
0.00740629
0.00735223
0.00710865
0.00667475
0.00652424
0.00765179
0.00779075
0.0062694
0.00722811
0.00795897
0.00796596
0.00774403
0.00731341
0.00692879
0.00664829
0.00703666
0.00737504
0.00756784
0.00841556
0.00855855
0.00830882
0.00777799
0.0072271
0.00693267
0.0066754
0.00658887
0.00624598
0.00344244
0.00312344
0.00306735
0.00319136
0.00323035
0.00324621
0.00326811
0.00322356
0.00321688
0.00343663
0.00337317
0.003165
0.0032841
0.00356176
0.0036405
0.00362602
0.00358653
0.0036179
0.00381513
0.00419698
0.0033846
0.00345091
0.00397875
0.00411237
0.00409718
0.00410381
0.0043085
0.0049499
0.00618522
0.00717743
0.00366888
0.00427879
0.00474858
0.00485885
0.00490767
0.00517671
0.0058558
0.00679865
0.00738695
0.00761236
0.00423874
0.0050494
0.00542487
0.00555552
0.00570661
0.0060899
0.00673858
0.00718608
0.0072844
0.00677188
0.0043276
0.00509671
0.00574598
0.00598093
0.00613766
0.0065163
0.0069624
0.00715272
0.00698809
0.00652207
0.00448468
0.00486297
0.00572201
0.00608289
0.0062612
0.00651516
0.00691397
0.00707247
0.00695711
0.00644046
0.00476001
0.00473742
0.00534867
0.00600683
0.00625992
0.00644514
0.00675908
0.0069758
0.00691403
0.0064474
0.00474577
0.00485616
0.00503928
0.005564
0.00608174
0.00629159
0.00639358
0.0066588
0.00683145
0.00655439
0.00462412
0.00510002
0.00517027
0.00543111
0.00580052
0.00604325
0.00627848
0.00639548
0.006669
0.00660451
0.00266169
0.00252636
0.00243698
0.00243497
0.00262091
0.00307571
0.00358746
0.00393626
0.004288
0.00453763
0.00273164
0.00257621
0.00247703
0.00247108
0.00262837
0.00311534
0.00378768
0.00430252
0.00447832
0.00448218
0.00278634
0.00266376
0.00254278
0.00251898
0.00264624
0.00312199
0.00389421
0.00446394
0.00468839
0.00488299
0.00285005
0.00271665
0.00261313
0.00258401
0.00267295
0.00309984
0.00394626
0.00470987
0.00503391
0.00531544
0.00301091
0.00280576
0.00272329
0.00266485
0.00273402
0.00310477
0.00395715
0.00485195
0.00516908
0.00538061
0.0031947
0.00298601
0.00284246
0.00276668
0.00280706
0.00310268
0.00390535
0.00489887
0.00519628
0.00535022
0.00323322
0.00304638
0.00293469
0.00286147
0.0028928
0.00308672
0.00370149
0.0048414
0.00518336
0.00530407
0.00324444
0.00308219
0.00296083
0.0029248
0.00294944
0.00308449
0.00344154
0.00456047
0.00508957
0.00524165
0.00323101
0.00311539
0.00303067
0.00303049
0.00305961
0.0031367
0.00331603
0.00378253
0.00463538
0.00503959
0.00320723
0.00315384
0.00325427
0.00330992
0.003437
0.00360087
0.00360002
0.00369623
0.00399709
0.00444107
0.00294685
0.00288705
0.00283071
0.00278376
0.00272871
0.00268184
0.00269744
0.00287209
0.00313933
0.00299119
0.00291063
0.00286274
0.00285907
0.00279381
0.00273764
0.00262874
0.00264127
0.00270158
0.00255724
0.00237446
0.00275173
0.0027848
0.00280281
0.00278875
0.00273154
0.00261844
0.0024917
0.00249491
0.00234529
0.00227909
0.00249696
0.00259244
0.00260973
0.0026534
0.00267222
0.00264626
0.00248515
0.00244521
0.00233453
0.00221586
0.00231302
0.00233028
0.00243848
0.00240599
0.00242269
0.00255097
0.00252865
0.00246064
0.00234828
0.00220178
0.00229123
0.00219301
0.0022262
0.00232201
0.00227031
0.00227256
0.00244275
0.00245218
0.00239709
0.00222961
0.00224544
0.00216473
0.00216015
0.00219974
0.00216155
0.00211873
0.00206927
0.0023527
0.00235579
0.00221497
0.00219157
0.00208819
0.00189491
0.00180159
0.00177372
0.00173481
0.00183152
0.00217069
0.00225557
0.00216965
0.00198054
0.00187621
0.00178996
0.00176465
0.00182398
0.00184867
0.00201807
0.00266578
0.00511224
0.00404494
0.00170657
0.00166288
0.0016269
0.00162763
0.00181201
0.00213835
0.00237553
0.00573595
0.00775339
0.0030227
0.000759968
0.00078233
0.000849201
0.000927561
0.00095706
0.000982332
0.000991441
0.000993663
0.000957611
0.000948433
0.000749639
0.000780918
0.000828432
0.0008637
0.000928657
0.000980758
0.00100351
0.00102754
0.00103405
0.00106995
0.000747408
0.000754051
0.000768519
0.000770912
0.000814984
0.000924287
0.000962692
0.000981059
0.00100674
0.00101543
0.000783852
0.000770752
0.000770123
0.000768627
0.000771005
0.000780406
0.00085123
0.000862397
0.000840971
0.000836621
0.000815213
0.000810295
0.000802339
0.000793984
0.000788782
0.000782583
0.000789647
0.000816832
0.000839277
0.000818349
0.000824258
0.000819176
0.000812276
0.000805527
0.00079982
0.000795996
0.000792292
0.000794456
0.00080198
0.000793236
0.000803132
0.00080856
0.000809025
0.000806226
0.00080037
0.000797233
0.000794434
0.000791863
0.000789929
0.000781143
0.000809954
0.00079565
0.00079714
0.000800253
0.00079787
0.000795458
0.000792801
0.000786416
0.000780913
0.000782044
0.000821196
0.000787423
0.000789243
0.000789784
0.00078836
0.000787365
0.000786358
0.000785809
0.000799625
0.000802215
0.000835267
0.000795917
0.000790388
0.000788806
0.000785641
0.000784628
0.000787082
0.000803661
0.000854989
0.000869189
0.000617432
0.000603592
0.000599239
0.000602349
0.000608718
0.000648123
0.000690768
0.000707549
0.000736876
0.000729589
0.000636035
0.000655814
0.000659047
0.000662554
0.000668279
0.000709929
0.000702658
0.000722432
0.000731854
0.000695478
0.000672011
0.000669428
0.000682438
0.000696798
0.00070212
0.000704535
0.000736855
0.000748873
0.000728823
0.000691347
0.000672668
0.000697968
0.000706044
0.000710573
0.000716354
0.000741224
0.000765602
0.000764272
0.000740386
0.000706463
0.00065174
0.00065886
0.000671977
0.000705706
0.000725001
0.000743973
0.000788829
0.000809495
0.000786106
0.000749626
0.000687208
0.000681397
0.000676881
0.000685927
0.00071261
0.000733359
0.000748044
0.000811922
0.000832358
0.000812288
0.000757462
0.000745644
0.000715122
0.000696593
0.000703291
0.000719229
0.000732827
0.000761203
0.000831573
0.000821611
0.000791039
0.000784012
0.000767391
0.000732116
0.000713002
0.000719937
0.000735932
0.000769267
0.000852171
0.000825489
0.000773691
0.000774489
0.000769464
0.000752954
0.000735039
0.000734271
0.000755273
0.000862441
0.000851771
0.000787416
0.000775139
0.000770612
0.00076661
0.000755593
0.000748748
0.000770943
0.000868639
0.000847785
0.000771222
0.000718776
0.000622021
0.000629757
0.00064418
0.000700745
0.000743657
0.000767171
0.000791489
0.000804726
0.000805673
0.000820404
0.000632994
0.000639972
0.000670558
0.000727025
0.000740184
0.000734694
0.000721384
0.000708657
0.00070225
0.000720718
0.000678073
0.000698617
0.000732648
0.000737817
0.000739099
0.000741989
0.000722406
0.000702412
0.00069501
0.000696801
0.000754923
0.000774961
0.000781064
0.000779009
0.000773275
0.000764403
0.000752818
0.000741799
0.000718173
0.000693391
0.000766175
0.000794981
0.000804562
0.000811793
0.000813803
0.000800382
0.000779281
0.000757559
0.000728359
0.000697848
0.000750032
0.000807686
0.000818667
0.000821411
0.000822343
0.000818874
0.000802524
0.000777133
0.000738564
0.000712548
0.000783076
0.000805011
0.000821835
0.000819903
0.000820805
0.000822352
0.00081947
0.000806243
0.000788164
0.00075873
0.000814584
0.000820111
0.000831306
0.000826247
0.000828833
0.000841069
0.00085455
0.000852162
0.000820553
0.00076951
0.00084481
0.000844163
0.00083062
0.000826373
0.000836686
0.000864855
0.00087165
0.000851724
0.000798008
0.000737006
0.000844747
0.000838618
0.000825123
0.000820062
0.000830539
0.000851179
0.000845285
0.000813267
0.000750682
0.000706202
0.00368636
0.00364375
0.00359047
0.00359079
0.00360598
0.0035802
0.00354311
0.00354404
0.00355766
0.00363491
0.0036787
0.00367738
0.00363304
0.00355949
0.00352467
0.00349755
0.00346111
0.00343313
0.00344316
0.00346857
0.00355875
0.00363288
0.00364616
0.0036284
0.00355966
0.00350047
0.00345281
0.00340506
0.00337845
0.00338635
0.00341984
0.0035233
0.00360437
0.00362906
0.00362472
0.00357502
0.00349192
0.00341975
0.00337955
0.00336269
0.00336853
0.00342805
0.00353533
0.00361212
0.00364297
0.00363877
0.00360068
0.00349702
0.00341024
0.00336365
0.00337052
0.00339948
0.003491
0.00360358
0.0036732
0.00369158
0.00367825
0.00361834
0.00349484
0.00339708
0.00343882
0.00345427
0.00352807
0.00363263
0.00369658
0.00373185
0.00373878
0.00370473
0.00360784
0.00348071
0.00357419
0.00359377
0.00365669
0.00372015
0.00376376
0.00379093
0.00378979
0.00375845
0.00368244
0.00355128
0.0037869
0.00379092
0.00379836
0.00382647
0.0038608
0.00385772
0.00383797
0.00378101
0.00371442
0.00359424
0.00405062
0.00399556
0.00396068
0.00395617
0.00395252
0.00393708
0.00389882
0.00381052
0.00373783
0.00362077
0.00343644
0.00344831
0.00344589
0.00346729
0.00349917
0.00349544
0.0034721
0.00346335
0.00348188
0.00355714
0.0034204
0.00346348
0.00346396
0.00342743
0.00339609
0.00338417
0.00336561
0.00335829
0.00336182
0.00337492
0.0032855
0.00340413
0.0034621
0.00346747
0.00343724
0.00338601
0.00335298
0.00332322
0.00331313
0.00330811
0.00313711
0.0032732
0.00339479
0.00346188
0.00347732
0.00345843
0.00340039
0.00334472
0.00331626
0.00329713
0.00309716
0.00315307
0.00328873
0.00341796
0.00349234
0.00350706
0.0034988
0.00345308
0.00337086
0.0033154
0.003114
0.00313646
0.00322702
0.00337553
0.00349618
0.00356222
0.00357235
0.00356208
0.0035102
0.00340488
0.00319086
0.00320273
0.00326261
0.00339141
0.00351455
0.00360642
0.00364458
0.00364862
0.00362341
0.00353505
0.00332963
0.00333808
0.0033888
0.00349152
0.00358473
0.00365547
0.00369431
0.00370259
0.0036869
0.00362054
0.0035024
0.00350429
0.00352726
0.00358479
0.00366281
0.00371802
0.00373769
0.00373589
0.00371512
0.00365201
0.00376799
0.00373573
0.00373142
0.00373206
0.00376381
0.00380868
0.00380631
0.00377922
0.00373265
0.00364678
0.00319686
0.00323647
0.00325294
0.00329032
0.00334054
0.00335408
0.00335242
0.00335655
0.00337441
0.00346155
0.00319245
0.00324901
0.00325844
0.00324697
0.00324069
0.00324362
0.00324702
0.00325357
0.00327476
0.00328051
0.00307966
0.00320238
0.00327096
0.00329074
0.00327446
0.00324433
0.00323171
0.00322634
0.0032314
0.00323323
0.00292886
0.00308282
0.00321367
0.00328721
0.00332102
0.00331694
0.00329517
0.00326031
0.00324322
0.00323593
0.00289159
0.00295392
0.00311192
0.00324671
0.00334509
0.00339403
0.00339874
0.00338701
0.00334884
0.00330038
0.00291427
0.0029398
0.00303945
0.00321174
0.00336111
0.00345972
0.00350342
0.00350829
0.00349945
0.00345435
0.002987
0.003005
0.00307051
0.0032267
0.00339021
0.00351693
0.00359151
0.00361419
0.00361257
0.00358066
0.00313177
0.00314522
0.00320072
0.00331782
0.00344504
0.00355818
0.0036329
0.00366815
0.00367166
0.00365346
0.0033043
0.00331214
0.00333708
0.00339528
0.00348376
0.00358681
0.00366547
0.00369349
0.00369425
0.00366976
0.00357048
0.00355684
0.00351723
0.00351717
0.00354073
0.00361822