/*--------------------------------*- C++ -*----------------------------------*\
  =========                 |
  \\      /  F ield         | OpenFOAM: The Open Source CFD Toolbox
   \\    /   O peration     | Website:  https://openfoam.org
    \\  /    A nd           | Version:  9
     \\/     M anipulation  |
\*---------------------------------------------------------------------------*/
FoamFile
{
    format      ascii;
    class       volScalarField;
    location    "79";
    object      f18.gas;
}
// * * * * * * * * * * * * * * * * * * * * * * * * * * * * * * * * * * * * * //

dimensions      [0 0 0 0 0 0 0];

internalField   nonuniform List<scalar> 
137980
(
0.00105028
0.00111739
0.00128301
0.00157457
0.00191989
0.00209953
0.00213093
0.00213416
0.0021514
0.0021702
0.00100895
0.00106284
0.00117084
0.00138852
0.00175726
0.00205477
0.00211425
0.00211402
0.00210565
0.00210227
0.00100592
0.00104219
0.00110742
0.00124412
0.00147537
0.0018533
0.00206014
0.00207414
0.00199441
0.0018911
0.000957096
0.000977808
0.00102039
0.0011117
0.00125603
0.00147194
0.00175387
0.00194309
0.0019541
0.00179664
0.00091294
0.000924053
0.000950169
0.00100798
0.00109696
0.00122764
0.00139001
0.00156258
0.00167868
0.00167105
0.000865785
0.00086908
0.000881709
0.000918963
0.000976136
0.00105024
0.00115079
0.00125857
0.00133206
0.00136581
0.000833341
0.000826587
0.000827065
0.000845704
0.000884422
0.000935519
0.000991132
0.00106078
0.00111361
0.00115591
0.000818337
0.000805943
0.000802359
0.000806725
0.00082877
0.000867528
0.000908454
0.000956281
0.000984147
0.00101476
0.000815825
0.000800837
0.000795329
0.000796352
0.000806018
0.000835601
0.000873183
0.000905915
0.000921289
0.000943141
0.000837045
0.000810753
0.000804906
0.000805129
0.00080818
0.000822738
0.000855099
0.000883144
0.000902095
0.000932659
0.000962875
0.00104425
0.00121642
0.00149652
0.00183157
0.00202095
0.00207604
0.00209596
0.00215151
0.00223353
0.00092221
0.000993057
0.00110926
0.00134538
0.00175144
0.00202232
0.00208988
0.00211066
0.00213965
0.00219318
0.000911951
0.000973407
0.00105819
0.0012195
0.00150438
0.00191166
0.00206202
0.00207948
0.00205683
0.00205324
0.000874144
0.000909255
0.000962603
0.00107691
0.00126705
0.00153879
0.00187671
0.00198401
0.00198229
0.00184391
0.000833696
0.000857497
0.000895838
0.000964459
0.00108739
0.00125068
0.00146784
0.00170441
0.00179794
0.00175503
0.000798421
0.000809088
0.000831616
0.000873538
0.000946921
0.00105485
0.00117617
0.0013171
0.00142509
0.00148078
0.000776119
0.00077299
0.00078279
0.00080375
0.000843916
0.000911694
0.000993027
0.00107601
0.00114432
0.00120339
0.000772054
0.00075666
0.000756892
0.000767445
0.000786199
0.000818154
0.000868035
0.000924814
0.000968682
0.00102151
0.000782173
0.000757824
0.000750987
0.000756303
0.000768791
0.000784483
0.000806128
0.000834166
0.000856603
0.000892722
0.000807366
0.000774985
0.000759719
0.000760623
0.00076938
0.0007853
0.000801605
0.000816582
0.000825717
0.00085568
0.000878133
0.00098192
0.001145
0.00140653
0.00176627
0.0020138
0.00208267
0.00207264
0.00215035
0.00263717
0.000893806
0.000969911
0.0010872
0.00134691
0.0017651
0.00203974
0.00214548
0.00227024
0.00241984
0.00269516
0.000841854
0.000929244
0.00104544
0.00123737
0.0015852
0.00198231
0.00213907
0.00225436
0.00249502
0.00269553
0.000811887
0.000857724
0.00093887
0.001091
0.00132999
0.00171129
0.00203699
0.0021694
0.00234571
0.00243472
0.000774936
0.000805908
0.000864698
0.000967432
0.00112277
0.00136325
0.00171182
0.00197802
0.00208046
0.00208574
0.000749066
0.000759023
0.000793391
0.000858456
0.000963369
0.00110879
0.00131039
0.00155439
0.00171923
0.00179121
0.000731375
0.000728432
0.000739657
0.000775033
0.000845604
0.000933456
0.00104887
0.00119065
0.00131571
0.00142143
0.000724837
0.000714422
0.000713551
0.000726739
0.00075938
0.000820036
0.000884901
0.000961845
0.00102603
0.00111081
0.000721344
0.000711191
0.000706902
0.000708662
0.000717644
0.000749164
0.000792716
0.000836649
0.000862898
0.000907512
0.000734054
0.000716401
0.000713378
0.000714092
0.000718098
0.000723621
0.000747239
0.000777538
0.000797381
0.000825648
0.000831685
0.000938445
0.00107463
0.00130404
0.00166563
0.00198684
0.0020848
0.0019189
0.00199781
0.00231049
0.000876029
0.000946541
0.00106008
0.00132614
0.00174552
0.00210895
0.00222071
0.00220541
0.00222603
0.00253945
0.00080459
0.000901298
0.00103819
0.00126551
0.00165083
0.0021308
0.00237436
0.00250913
0.00263919
0.00274855
0.000778175
0.000829005
0.000940149
0.00113469
0.0014667
0.00198742
0.00242801
0.00264804
0.00289424
0.0029604
0.000729407
0.000773152
0.000854478
0.000998879
0.00124592
0.00167203
0.00227453
0.00260579
0.00286177
0.00295372
0.000694816
0.000718174
0.000771915
0.000876138
0.00104184
0.00132812
0.00180834
0.00237233
0.00269204
0.00282885
0.000669267
0.000678785
0.000708352
0.000779181
0.000883375
0.00105338
0.00133553
0.00176709
0.00221243
0.00248489
0.000650518
0.000653964
0.000669625
0.000705475
0.000775048
0.000873969
0.00102131
0.00122244
0.00143404
0.00167986
0.000639306
0.000639819
0.000648951
0.000664262
0.000710804
0.000770322
0.000849689
0.000937689
0.000993334
0.00108922
0.000663528
0.000639893
0.000647181
0.00065617
0.000672659
0.00071847
0.000773712
0.000820054
0.000832357
0.000827508
0.000809161
0.000908042
0.00103838
0.00121185
0.00149184
0.00188988
0.00205324
0.00196055
0.0020816
0.00193324
0.000859807
0.000932595
0.0010435
0.00129051
0.00169996
0.0021222
0.00228234
0.00224257
0.00229501
0.00211705
0.000760176
0.00088519
0.00104416
0.0013236
0.00180436
0.00236559
0.00257388
0.00264161
0.00272332
0.00248195
0.000722175
0.00080189
0.000963517
0.001261
0.00179291
0.00249053
0.0028421
0.00298784
0.00309313
0.00286284
0.000665713
0.000744682
0.000872052
0.00112175
0.0016146
0.00240909
0.00302878
0.00325717
0.00332802
0.00306019
0.000628882
0.000676022
0.000778115
0.000956891
0.00132889
0.00203746
0.00293962
0.0033652
0.00351384
0.00341945
0.00060839
0.000625893
0.000696815
0.000823352
0.00106858
0.00157198
0.00249662
0.00325386
0.00356818
0.00366996
0.000601299
0.000598999
0.000637846
0.000726362
0.000881267
0.00119858
0.00180214
0.00274311
0.00326495
0.00349795
0.000619114
0.000593892
0.000602534
0.000662929
0.00075968
0.000939707
0.00125384
0.0016923
0.00209804
0.00231805
0.000651382
0.00060954
0.000597059
0.000621536
0.000688714
0.000808562
0.00101274
0.00117216
0.00111005
0.000951905
0.000806341
0.000862244
0.00097414
0.00109918
0.00128413
0.00164885
0.00211497
0.00225057
0.00181665
0.00168255
0.000822565
0.000894123
0.00101016
0.00122904
0.00159977
0.00213167
0.00242647
0.00253309
0.00213292
0.00180458
0.000709098
0.000853728
0.00104358
0.00133769
0.00185075
0.00248572
0.00279739
0.00293457
0.00261647
0.00203575
0.000663202
0.000768594
0.000978365
0.0013264
0.00193548
0.00273605
0.00319733
0.00337536
0.00313404
0.00239151
0.000632275
0.000719816
0.000894429
0.00123045
0.00188311
0.002859
0.00350876
0.00369876
0.00346791
0.00264528
0.000616562
0.000655293
0.000801109
0.00110571
0.00174792
0.00286692
0.00386514
0.00414046
0.00393994
0.00311162
0.000613181
0.000619198
0.000713703
0.000971299
0.00157377
0.0027908
0.0039963
0.00428262
0.00408351
0.00331377
0.000642612
0.000605627
0.000645368
0.000839818
0.0013347
0.0024717
0.00400725
0.00456288
0.0044418
0.00382164
0.000681179
0.000629686
0.000610848
0.000724542
0.00106951
0.00189181
0.00362541
0.00441706
0.00461154
0.00469524
0.000689418
0.000638004
0.000605763
0.000658851
0.000887599
0.00150313
0.00270288
0.00359775
0.00340807
0.00272229
0.000836794
0.000852954
0.000916188
0.00101806
0.00116085
0.00159514
0.00268748
0.00196974
0.00154125
0.00227426
0.000785843
0.000879097
0.00101923
0.00124007
0.00164149
0.00255186
0.00303275
0.00205649
0.00162422
0.0022398
0.000713159
0.000871392
0.00108957
0.00146397
0.00217363
0.00322267
0.00338558
0.00226958
0.00174626
0.00220627
0.000670176
0.000799609
0.00108416
0.00162071
0.00275279
0.00373546
0.00380612
0.00262291
0.0019492
0.00222432
0.000657454
0.000767806
0.0010661
0.00174828
0.00330728
0.004212
0.00423762
0.00301735
0.00224685
0.00228862
0.000661295
0.000722606
0.00104497
0.00193149
0.00388375
0.00466585
0.00467566
0.00357854
0.00264317
0.00243082
0.000702086
0.000700966
0.00101515
0.00219162
0.00443696
0.00516859
0.00513587
0.00409106
0.00306626
0.00263471
0.000811506
0.000703371
0.000956534
0.00229959
0.00477878
0.0055877
0.00560614
0.00459341
0.00350675
0.0030122
0.000855915
0.000770369
0.000908779
0.00225433
0.00485532
0.00567815
0.00576743
0.00480093
0.00386793
0.003496
0.000864455
0.000772769
0.000924764
0.00207082
0.00481189
0.00592163
0.00629535
0.00572499
0.00505108
0.00478831
0.000910198
0.00087661
0.000935306
0.00102599
0.00114027
0.00180479
0.00157472
0.00133896
0.00214185
0.00912144
0.000812843
0.000950976
0.00120911
0.00171622
0.00206249
0.00217102
0.00170189
0.00160828
0.00341295
0.0112321
0.00082394
0.00114353
0.00191998
0.00250436
0.00262794
0.00236732
0.00196948
0.00207473
0.0055562
0.0115705
0.000819041
0.00125464
0.00243559
0.00296067
0.00302903
0.00259556
0.00229964
0.00264432
0.00717128
0.0113316
0.000861625
0.00138094
0.00279732
0.00336702
0.00342974
0.00290521
0.00262658
0.0031711
0.00775609
0.0111867
0.000921819
0.00145393
0.00308991
0.00375394
0.00381657
0.00327851
0.00300442
0.00336963
0.00763688
0.0109485
0.00100592
0.00145888
0.00335357
0.00419305
0.00428466
0.00370229
0.0033649
0.00344705
0.00722974
0.0105392
0.0011568
0.00139764
0.00345211
0.00454374
0.00468122
0.00421974
0.00379511
0.00361664
0.0063845
0.00975016
0.00128444
0.00142022
0.00350719
0.00496166
0.00521612
0.004815
0.00423443
0.00394197
0.00545747
0.00902763
0.00166952
0.00162673
0.00384155
0.00524476
0.0054847
0.00519852
0.00468826
0.00429727
0.00501338
0.00725346
0.000981297
0.000987767
0.00104363
0.0010588
0.00113981
0.00128047
0.00129341
0.00240228
0.0109219
0.0135561
0.000992288
0.00127871
0.00140554
0.00142839
0.00151452
0.00153187
0.00185137
0.00532095
0.0118842
0.0121062
0.00150207
0.00200624
0.00207989
0.00200483
0.00192052
0.00194628
0.00348697
0.00948619
0.0111604
0.00762187
0.00189343
0.0024992
0.00258045
0.00240748
0.00234548
0.0028329
0.00662359
0.00952226
0.00925156
0.00501528
0.00233522
0.00292087
0.00301695
0.00291825
0.00296146
0.00427273
0.00811013
0.0093098
0.00721879
0.00409677
0.00264404
0.00330063
0.00342512
0.00336169
0.00356703
0.0054923
0.00849845
0.00891216
0.00607307
0.00389216
0.0028394
0.00359214
0.00380399
0.00382538
0.0041739
0.00633329
0.00856367
0.00863175
0.00553355
0.00396039
0.00297995
0.00386239
0.00416884
0.00423646
0.00465273
0.00673892
0.00856172
0.00850946
0.00556604
0.00419946
0.00298655
0.00394501
0.00445906
0.00466081
0.00505429
0.00688763
0.00856656
0.00856217
0.00570268
0.00442837
0.00314176
0.00411477
0.00480079
0.00504917
0.00541492
0.0068193
0.00851843
0.00875066
0.00622477
0.00490381
0.00140624
0.00139108
0.00133847
0.00127372
0.00132041
0.00169416
0.00441772
0.0119513
0.0130636
0.0130756
0.00147402
0.00153806
0.00145795
0.00144749
0.00170442
0.00294532
0.00900169
0.0124185
0.0125778
0.0116538
0.00181411
0.00189331
0.00179857
0.00185429
0.0025697
0.00625783
0.0112599
0.0120817
0.0104602
0.00723698
0.00235677
0.00237936
0.00229045
0.00248586
0.00444564
0.00941997
0.0111511
0.0106787
0.00661315
0.00490818
0.00275265
0.0027841
0.0027949
0.00353147
0.00694187
0.0102228
0.0107021
0.0080959
0.0049681
0.00395545
0.00327793
0.00334944
0.00345432
0.00466119
0.00856635
0.0101908
0.00974073
0.00614318
0.00413763
0.00349922
0.00355317
0.00366014
0.00398046
0.0057266
0.00917474
0.010118
0.00902988
0.00514101
0.00371062
0.00332043
0.00395067
0.00421603
0.0046545
0.00658886
0.00936388
0.00996338
0.00801444
0.00457436
0.00351862
0.00327669
0.00419492
0.00441342
0.00491009
0.0068803
0.009447
0.0100055
0.00802133
0.0045795
0.00351804
0.00324882
0.00436226
0.0048102
0.00542187
0.00724259
0.00950796
0.0101818
0.00849072
0.00482465
0.00357208
0.00328521
0.00205375
0.00189448
0.0017355
0.00169327
0.00182543
0.00273368
0.00892314
0.0107078
0.0103175
0.0106546
0.00191139
0.00190836
0.0017788
0.00183948
0.00234953
0.00472671
0.0101168
0.0109053
0.0108982
0.0118404
0.00201775
0.00203989
0.00196285
0.00219174
0.00341982
0.00814905
0.0109489
0.0114395
0.0116658
0.0119601
0.002459
0.00244065
0.00239826
0.00291465
0.00553374
0.0101442
0.0113872
0.0115326
0.0114666
0.0107617
0.00290983
0.00280264
0.00288264
0.00413973
0.00854735
0.0110743
0.0115396
0.0113987
0.0106469
0.00806768
0.00360279
0.00352593
0.00385581
0.00600146
0.010132
0.0113933
0.0115204
0.0108528
0.00879252
0.00622367
0.00400549
0.00387514
0.0045733
0.00781756
0.0109416
0.0115637
0.011439
0.010144
0.00752776
0.00552035
0.00438141
0.0045874
0.00570552
0.00929532
0.0113035
0.0116475
0.0111919
0.00939629
0.00671276
0.00495621
0.00468598
0.00484033
0.00609222
0.0099156
0.0115848
0.0118276
0.0112167
0.00916251
0.00621872
0.00478951
0.00483457
0.00529252
0.00691782
0.0106573
0.0117581
0.0119882
0.0114726
0.00960002
0.00611967
0.00441024
0.00259379
0.00263582
0.00264128
0.00289465
0.00315625
0.00490451
0.00727061
0.00684691
0.00678406
0.00733599
0.00276121
0.00286919
0.00293649
0.00334258
0.00388062
0.005839
0.00764981
0.00733875
0.00714846
0.00744332
0.00335547
0.00327781
0.00349112
0.00410148
0.00514166
0.00722592
0.0082043
0.00773192
0.00758193
0.00775465
0.00439895
0.00421477
0.00465867
0.00552717
0.00705703
0.00829994
0.00872707
0.008046
0.00799964
0.00799129
0.00576223
0.00530017
0.00596129
0.00724
0.00853302
0.00906372
0.00880594
0.00822176
0.00815794
0.0081363
0.00713537
0.00648622
0.00718611
0.00854729
0.00936844
0.00935685
0.00881145
0.00838562
0.00841187
0.00838435
0.00791952
0.00708354
0.00761384
0.00920819
0.00990565
0.009534
0.00884521
0.00861115
0.00859194
0.00897891
0.00904987
0.00818623
0.00854945
0.00992934
0.0103949
0.00984845
0.00900352
0.0089275
0.00902056
0.00922858
0.0092373
0.00857611
0.00890585
0.0102658
0.0109206
0.0105467
0.00941984
0.00908507
0.00916387
0.00978861
0.00966168
0.00925576
0.00958333
0.0107826
0.011612
0.0115494
0.0108874
0.00965671
0.00951168
0.00979528
0.00682597
0.00844215
0.00894005
0.0095886
0.00992912
0.0100663
0.00789163
0.00713172
0.00724516
0.00759556
0.00823812
0.00821405
0.00894867
0.0097514
0.0104985
0.0113908
0.0114885
0.0100232
0.00930801
0.00913091
0.00875266
0.00865633
0.00903541
0.0098223
0.0104487
0.0109136
0.0123341
0.0128084
0.0123429
0.0109682
0.00885837
0.00872486
0.00892577
0.00975117
0.0104018
0.0106745
0.0112906
0.0131837
0.0134217
0.0126894
0.00798953
0.00785835
0.00818583
0.00918018
0.0100535
0.0105571
0.0108737
0.0121393
0.013285
0.0124094
0.00726454
0.00748739
0.00801156
0.00906597
0.00977601
0.0103463
0.0106412
0.0114154
0.0129231
0.0109011
0.00710184
0.00741623
0.00800524
0.00906218
0.00970095
0.0103068
0.0105876
0.0110402
0.0123825
0.010309
0.00706987
0.00762467
0.00828983
0.00923594
0.00970033
0.0104389
0.0107478
0.0110703
0.012077
0.0103061
0.00712458
0.00799702
0.00874031
0.00948941
0.0100854
0.0113888
0.0117117
0.0115612
0.0119748
0.0103131
0.00782861
0.0088498
0.00948303
0.010182
0.0118861
0.0142834
0.0145382
0.0137097
0.0123475
0.00980367
0.00792109
0.00776009
0.00734922
0.00717489
0.00713629
0.00714139
0.0072505
0.00744221
0.00753473
0.00787885
0.00744951
0.00684059
0.00662842
0.00653339
0.00656823
0.00673482
0.00702429
0.0072336
0.00734002
0.00756701
0.00686704
0.0063607
0.00610344
0.00607556
0.00624781
0.00659264
0.00694371
0.00720283
0.00729375
0.00751642
0.00589764
0.00550372
0.00551721
0.00575819
0.0061571
0.00659733
0.00699005
0.00733167
0.00739553
0.00754771
0.00517037
0.00514323
0.00532131
0.0057462
0.0062694
0.00702959
0.00765264
0.0079341
0.00786322
0.00782969
0.0048355
0.00499332
0.00534865
0.00616404
0.00727683
0.00852456
0.00928911
0.00922181
0.00875497
0.00835857
0.004706
0.00510272
0.00596559
0.00770511
0.00971803
0.011065
0.0112167
0.0109193
0.00989658
0.00875487
0.00494473
0.00596408
0.00796074
0.0108816
0.0118835
0.0121368
0.0120148
0.0116552
0.0106115
0.00944881
0.00608502
0.00780715
0.0108298
0.0124368
0.0124202
0.0123591
0.0120652
0.0114213
0.0102955
0.00919524
0.00700372
0.00938998
0.0120406
0.0129559
0.0124319
0.0120347
0.0115306
0.0108252
0.00968401
0.00767581
0.00618105
0.00682428
0.00718797
0.00738574
0.00750735
0.00759399
0.00767228
0.00765792
0.00746238
0.00537007
0.00602243
0.00671512
0.00714047
0.00735919
0.00745731
0.00750324
0.00750352
0.00745547
0.00710209
0.00584038
0.00601745
0.00681176
0.00727042
0.00749984
0.00753435
0.00751191
0.00745018
0.00726579
0.00652766
0.00552317
0.00617919
0.00706448
0.00747922
0.00771479
0.0076969
0.00759508
0.00731428
0.00661932
0.00490659
0.00388713
0.0065027
0.0073747
0.00775605
0.00801433
0.0079706
0.00762864
0.00661482
0.0044371
0.00319104
0.00269804
0.00683933
0.00766692
0.00805381
0.00846219
0.00836133
0.00729274
0.00469318
0.00328714
0.00264636
0.00239926
0.00717091
0.00797632
0.00849498
0.00916738
0.00859422
0.00591446
0.00388796
0.00298308
0.00252457
0.00231783
0.00742151
0.00824724
0.00890286
0.00967601
0.00843142
0.00501786
0.00361568
0.00291648
0.00255903
0.00236472
0.00754042
0.00838213
0.00907002
0.00978859
0.00758254
0.00466561
0.00368541
0.00326036
0.00306154
0.00293593
0.00759035
0.00841634
0.00899046
0.00925294
0.00687088
0.00437443
0.00367203
0.00340356
0.00331901
0.00328876
0.00535425
0.00569504
0.00594327
0.0061256
0.0062761
0.006244
0.00590399
0.00495555
0.0048504
0.0050203
0.00511356
0.00543284
0.00565872
0.00589527
0.00605341
0.00599503
0.0055474
0.00468731
0.00484297
0.00480151
0.00502937
0.00532272
0.00553188
0.00579465
0.00594207
0.00583245
0.00531088
0.00454634
0.00480106
0.00482648
0.00497285
0.00519777
0.00538232
0.00574306
0.00588046
0.00568153
0.00498884
0.00427362
0.00452429
0.00474734
0.00492541
0.00507146
0.00527622
0.00572534
0.00578805
0.00537199
0.00447864
0.00403535
0.00407497
0.00442564
0.00485757
0.00493622
0.00519255
0.00574283
0.00569977
0.00481373
0.00405843
0.00376841
0.0037242
0.00383934
0.00476845
0.00475954
0.00508853
0.0057294
0.00536986
0.00432345
0.00378344
0.00351078
0.00342257
0.00339363
0.0046457
0.00458075
0.0050183
0.00556696
0.00503534
0.00404971
0.00354522
0.00320304
0.00304058
0.00293839
0.00453381
0.00440483
0.00479782
0.00526732
0.00480327
0.00371895
0.00329411
0.0030305
0.00289795
0.00269795
0.00445945
0.00425255
0.0047172
0.00510464
0.0044404
0.00345418
0.00302662
0.00274368
0.00256325
0.00226534
0.00402459
0.0044969
0.00483036
0.0048183
0.00471551
0.00471161
0.0047955
0.00581664
0.00663624
0.00445652
0.003826
0.00437538
0.00464468
0.0047276
0.00466007
0.00458121
0.00466102
0.0049706
0.0066901
0.0063633
0.00375872
0.00430885
0.0045733
0.00460326
0.0045605
0.00442181
0.00445765
0.004642
0.00584421
0.00692951
0.00367905
0.00429285
0.00450673
0.00454359
0.00448353
0.00428219
0.00429646
0.00443444
0.00513123
0.00685431
0.0036693
0.00435728
0.00447915
0.00446294
0.00436148
0.00410958
0.00411936
0.00426042
0.00499629
0.00680083
0.00401023
0.004434
0.00446219
0.00441011
0.00423186
0.00393637
0.00394914
0.00411088
0.00522262
0.00594345
0.00431208
0.00447072
0.00445449
0.00430516
0.00397656
0.00371226
0.00374274
0.00398609
0.00527159
0.00412257
0.00446571
0.00451532
0.00442748
0.00409357
0.00370307
0.00348393
0.00353181
0.00381299
0.00518763
0.00440424
0.00457622
0.00455575
0.00432088
0.00376446
0.00339166
0.00321762
0.00327264
0.00346741
0.00469264
0.00478898
0.00473275
0.00456635
0.00403198
0.00340235
0.00309575
0.00296744
0.00302299
0.0031801
0.00400527
0.00387314
0.0037088
0.0038518
0.00521516
0.00557036
0.00597981
0.00608995
0.00551265
0.00535027
0.00552796
0.00485996
0.00299157
0.00351907
0.00425818
0.00456756
0.00492953
0.00567498
0.00579459
0.00476894
0.00469209
0.00452881
0.0028615
0.00331839
0.00401991
0.00438973
0.00448617
0.00479701
0.00585725
0.00569917
0.00442809
0.00426369
0.00275013
0.00313044
0.00389447
0.00438265
0.00446663
0.00442414
0.00469994
0.00734743
0.00457271
0.00427299
0.00270242
0.00307141
0.00385273
0.00442466
0.00457889
0.00448496
0.00444972
0.00583242
0.00564082
0.00443678
0.00268692
0.00321701
0.00412057
0.00467675
0.00474778
0.00469142
0.00449485
0.00468393
0.00587504
0.00505013
0.00288724
0.00366997
0.00451585
0.00494899
0.00497589
0.00487887
0.00462612
0.00458207
0.00568359
0.00513094
0.00352069
0.00428366
0.00516906
0.00550867
0.00546286
0.00527143
0.00487859
0.00463467
0.00539634
0.00551383
0.0044661
0.00524627
0.00600106
0.00607563
0.00591612
0.00556182
0.00521509
0.00479032
0.00498154
0.00523031
0.00554961
0.00637377
0.00664739
0.00646346
0.00603664
0.00554741
0.00527164
0.00497085
0.00481243
0.00496801
0.00223143
0.00203233
0.00200706
0.0021121
0.00214153
0.00214032
0.0021286
0.00210059
0.00209923
0.00227127
0.00218417
0.00205603
0.00215
0.00232439
0.00236316
0.00235077
0.00234678
0.00239379
0.00258966
0.00293673
0.00219728
0.00223977
0.0025807
0.00266559
0.00266101
0.00271039
0.00290838
0.00348563
0.00463338
0.00549662
0.00239245
0.00278926
0.00311162
0.00319461
0.00327398
0.0035717
0.00423603
0.0051764
0.00568082
0.00587707
0.00280081
0.00339077
0.00371707
0.00383853
0.00401816
0.00442768
0.00507894
0.00550214
0.0055951
0.00518276
0.00285957
0.00341203
0.00397563
0.00422129
0.00442801
0.00482675
0.00528956
0.00547678
0.00537161
0.00493928
0.00297069
0.00323595
0.0039278
0.00427531
0.00449778
0.00481187
0.00524349
0.00542154
0.00534977
0.00487698
0.00323653
0.00315514
0.0035801
0.00416748
0.00445883
0.0047057
0.00507933
0.00532822
0.00530096
0.00489464
0.00326293
0.00329899
0.00338327
0.00375571
0.00419724
0.00444652
0.00462144
0.00499496
0.00522613
0.00496287
0.0031868
0.00355796
0.00354478
0.00370252
0.00395542
0.00416812
0.00435657
0.00450466
0.00500516
0.00499612
0.00236011
0.00229394
0.00209517
0.00176572
0.00177073
0.00205861
0.00244717
0.00271359
0.0029906
0.00334577
0.00241659
0.00228388
0.00213404
0.0018769
0.00180875
0.00211178
0.00258667
0.0029996
0.00320102
0.00331916
0.00247174
0.0023352
0.00220512
0.00200034
0.00188291
0.00213067
0.00266953
0.00316364
0.00338103
0.00375292
0.00244981
0.00248625
0.00240277
0.00225193
0.00206689
0.00216241
0.00269678
0.00335425
0.0036947
0.0041349
0.00230741
0.00248193
0.0025746
0.00252959
0.00233608
0.00222316
0.00272421
0.00353325
0.00388866
0.00408918
0.00225777
0.00236963
0.00258381
0.00271285
0.00266862
0.00234496
0.00271713
0.00356306
0.00390955
0.00402257
0.00226654
0.00225515
0.00251697
0.00278301
0.00288981
0.00251937
0.00267678
0.00349585
0.00389452
0.00395107
0.00239459
0.00241449
0.00248699
0.00262197
0.00288582
0.00266353
0.00259642
0.00322479
0.00381201
0.00390588
0.00230804
0.00228951
0.0023167
0.00241334
0.0026071
0.00259945
0.002529
0.00269921
0.00330204
0.00371971
0.00237061
0.00247133
0.00245723
0.00266914
0.00283238
0.00285282
0.00277368
0.00274652
0.00290811
0.00322795
0.00230904
0.0023804
0.00261485
0.00339588
0.00431453
0.00452966
0.00473399
0.00574536
0.00687398
0.00559288
0.00223041
0.00233366
0.00233738
0.00259031
0.00331901
0.00397541
0.00438244
0.00453771
0.00366485
0.00289487
0.00208785
0.00231084
0.00212041
0.00216895
0.00238872
0.00310342
0.0036425
0.00375717
0.00295389
0.00270408
0.00170571
0.0020855
0.00208032
0.00194108
0.00200242
0.00259543
0.00346318
0.00349539
0.00300246
0.00288567
0.00155347
0.0015793
0.001794
0.00185067
0.00182477
0.00200355
0.00336493
0.00342561
0.00327338
0.00286408
0.00153777
0.00144546
0.00148176
0.00156259
0.00176118
0.00221406
0.00260361
0.00335598
0.00328679
0.00281559
0.00150592
0.00137924
0.00142396
0.00152434
0.00147807
0.0016122
0.00158413
0.00274254
0.00306466
0.00270876
0.00146995
0.00142276
0.00160921
0.00174528
0.00174431
0.00139643
0.00159362
0.00258953
0.00257074
0.00237919
0.00182079
0.00184616
0.00186791
0.00191771
0.00211953
0.00214585
0.00223634
0.00401344
0.0116876
0.00845934
0.0016812
0.00164994
0.00146418
0.00141153
0.00206846
0.00346337
0.00331242
0.0127271
0.0193492
0.00422311
0.000504528
0.000532467
0.000577796
0.000588528
0.000593317
0.00062343
0.000638306
0.000644216
0.000630816
0.000603473
0.000478097
0.000528858
0.000570019
0.000578607
0.000582773
0.000623342
0.000645553
0.000660692
0.000670428
0.000669518
0.000453395
0.000466258
0.000488614
0.000480529
0.000526558
0.000559385
0.000576876
0.000604665
0.000627289
0.000634694
0.000465578
0.000465154
0.000468895
0.000467252
0.000467038
0.000480653
0.000542431
0.000532819
0.000537191
0.000546743
0.000580569
0.000540959
0.000505183
0.000487148
0.000475511
0.000477956
0.000521076
0.000525812
0.000522034
0.000520925
0.000641362
0.000625502
0.00060841
0.000583173
0.000546497
0.000499686
0.000506224
0.000519683
0.000525238
0.000541331
0.000646963
0.000625197
0.000610909
0.000599796
0.000590822
0.000563857
0.000526071
0.000525071
0.000527058
0.000554255
0.000553458
0.000562882
0.000579755
0.000586912
0.000585447
0.000572556
0.000544161
0.000541683
0.000549891
0.000555982
0.000545702
0.000557429
0.000572591
0.000582812
0.000583984
0.000570785
0.000556452
0.000557032
0.000555147
0.000600387
0.000551482
0.00056651
0.000569687
0.000579025
0.000589188
0.000596111
0.000583486
0.000586441
0.000744009
0.000818442
0.000342416
0.000332238
0.000345773
0.000360132
0.000380543
0.000363838
0.00037437
0.000382729
0.000394518
0.000426277
0.000374627
0.000359685
0.000374158
0.000381154
0.00038271
0.000382708
0.000374987
0.000385808
0.000388095
0.000508215
0.000738029
0.000426679
0.000394259
0.00037943
0.000377329
0.00037304
0.000388971
0.000393665
0.000384643
0.000614208
0.000700566
0.000713853
0.000730393
0.000638531
0.000461647
0.000402728
0.000409745
0.000405034
0.000393175
0.000494603
0.000391938
0.000425035
0.0005945
0.000762963
0.000758859
0.000656672
0.00047753
0.000451557
0.000416212
0.000431388
0.000593072
0.000614301
0.000616081
0.000691449
0.000776802
0.000787819
0.000707827
0.000555459
0.000482332
0.000429537
0.00054985
0.000591593
0.000699316
0.000722821
0.000763813
0.000776362
0.000814095
0.000773097
0.000551088
0.00045661
0.000523477
0.000508231
0.000556083
0.000643708
0.00072024
0.000746575
0.000865792
0.000815827
0.000565596
0.000456539
0.000634099
0.000549726
0.000554127
0.000618063
0.000679737
0.00076531
0.00108751
0.00072982
0.000485875
0.000435391
0.00065405
0.000828442
0.000613573
0.000705377
0.000853475
0.00117464
0.000724627
0.000473015
0.00043721
0.000431138
0.000333915
0.000389116
0.000537476
0.000406913
0.000397848
0.000423566
0.000456137
0.000472666
0.000476638
0.000470941
0.00041627
0.000437502
0.000437494
0.000384832
0.000390681
0.000390109
0.000387365
0.000390069
0.000393177
0.00038609
0.000378701
0.000389601
0.000393001
0.000386833
0.000387154
0.000388996
0.000378309
0.000368014
0.000364465
0.000364958
0.000396869
0.000410449
0.000413614
0.000411463
0.000406294
0.000400683
0.000394099
0.000388149
0.000374643
0.000360352
0.000407339
0.000422252
0.000428584
0.000432214
0.000432935
0.000423717
0.000410762
0.000398016
0.000380919
0.000362964
0.000426248
0.00042929
0.000437173
0.000438812
0.000439283
0.000436886
0.000426724
0.000411226
0.000387791
0.000371796
0.000429347
0.000429953
0.00043916
0.000437873
0.000438472
0.000439465
0.000437991
0.000429565
0.000418362
0.000400479
0.000436969
0.000439679
0.000445051
0.00044217
0.000443987
0.000451662
0.000459892
0.000458063
0.000438627
0.000407384
0.000453229
0.000453474
0.000444969
0.000442592
0.000449065
0.000466998
0.000471474
0.000459328
0.000425751
0.000387329
0.000453933
0.000450681
0.000442189
0.000439035
0.000445275
0.000458842
0.000456369
0.000437813
0.00039891
0.000369842
0.00269822
0.00260774
0.00253825
0.00252162
0.00252828
0.00249941
0.00246067
0.00245892
0.00246679
0.00252385
0.00269127
0.0026656
0.00257751
0.00249877
0.00245697
0.00242547
0.00238781
0.00235952
0.00236565
0.00238123
0.00261622
0.00263544
0.00262465
0.00256922
0.00248469
0.00242741
0.00238119
0.00233491
0.00230739
0.00231098
0.00250678
0.00256996
0.00259384
0.00259111
0.00256369
0.00248475
0.00241299
0.00234699
0.00230716
0.00228871
0.00245081
0.00249538
0.00255507
0.00258357
0.00258579
0.00256708
0.00250625
0.00240679
0.00233102
0.00228855
0.00244459
0.00246116
0.00251965
0.00258393
0.00261306
0.00261251
0.00258483
0.00251058
0.00239941
0.00231572
0.00248682
0.00249335
0.0025376
0.00260409
0.00263468
0.00264355
0.00263588
0.00259298
0.0024949
0.00238406
0.00258487
0.00259252
0.00262458
0.00266217
0.00268075
0.00268352
0.00267323
0.00263239
0.00256
0.0024428
0.00275122
0.00273756
0.00272596
0.00273153
0.00273994
0.00272959
0.00270071
0.00264303
0.00258531
0.00247852
0.00297813
0.00289847
0.002839
0.00281847
0.00280715
0.00278394
0.00273867
0.00265742
0.00260227
0.00249816
0.00247103
0.00246336
0.00242767
0.00243437
0.00245081
0.00244344
0.00240989
0.00239592
0.00240754
0.00246086
0.00246272
0.00247757
0.00245931
0.00239813
0.00235863
0.00233879
0.00231581
0.00230127
0.00230238
0.00230787
0.00236452
0.00243809
0.00246064
0.00244809
0.00239231
0.00233919
0.00230378
0.00227198
0.00225748
0.00225
0.00223914
0.00234167
0.00241672
0.00244667
0.0024436
0.00240408
0.00234109
0.00228904
0.00225973
0.00223741
0.00219673
0.00224186
0.00234091
0.00242286
0.00245842
0.00245719
0.00243626
0.00237469
0.00230305
0.002252
0.00220401
0.00222012
0.00228835
0.00239309
0.00247027
0.00250284
0.00250277
0.00248133
0.00241718
0.00232371
0.00225864
0.00226586
0.00230833
0.00240211
0.00248653
0.00254216
0.00255988
0.00255485
0.00252123
0.00243179
0.00236314
0.0023672
0.00239988
0.00247194
0.00253486
0.00257825
0.0025971
0.0025952
0.00257363
0.00250548
0.00249953
0.00249636
0.00250531
0.0025369
0.00258613
0.0026196
0.00262556
0.00261734
0.00259202
0.00252976
0.00272804
0.00268706
0.00266315
0.0026511
0.00266181
0.00268377
0.00267759
0.00264236
0.00260027
0.00252611
0.00226774
0.00228447
0.00227957
0.00229729
0.00232963
0.00233528
0.00232058
0.00231601
0.00232406
0.00238135
0.00226479
0.0022946
0.00228992
0.00225837
0.00223734
0.00222931
0.00222222
0.00222259
0.00223293
0.0022327
0.00217789
0.00226196
0.00229907
0.00229939
0.00226616
0.00222798
0.00220779
0.0021946
0.00219417
0.00219127
0.00204953
0.00216821
0.00225808
0.00229978
0.00230931
0.00229233
0.00225649
0.00222186
0.00220258
0.0021901
0.0020103
0.00205982
0.00217872
0.00227217
0.00233471
0.00235551
0.00235183
0.00233129
0.00228488