/*--------------------------------*- C++ -*----------------------------------*\
  =========                 |
  \\      /  F ield         | OpenFOAM: The Open Source CFD Toolbox
   \\    /   O peration     | Website:  https://openfoam.org
    \\  /    A nd           | Version:  9
     \\/     M anipulation  |
\*---------------------------------------------------------------------------*/
FoamFile
{
    format      ascii;
    class       volScalarField;
    location    "79";
    object      f19.gas;
}
// * * * * * * * * * * * * * * * * * * * * * * * * * * * * * * * * * * * * * //

dimensions      [0 0 0 0 0 0 0];

internalField   nonuniform List<scalar> 
137980
(
0.000603188
0.000647914
0.000753411
0.000946922
0.00118932
0.0013199
0.00134127
0.00134164
0.00134797
0.00135474
0.000578884
0.000614181
0.00068044
0.000819601
0.00106938
0.00127829
0.00132031
0.00131903
0.00130443
0.00129722
0.000578625
0.000602043
0.000641229
0.0007269
0.000873576
0.0011307
0.00127463
0.00128374
0.00122045
0.00114841
0.000546422
0.00055913
0.000584285
0.000641353
0.000731669
0.000870961
0.00106065
0.00119111
0.00119579
0.00108465
0.000516334
0.000523151
0.000538529
0.000574161
0.000630741
0.000710847
0.00081848
0.000931111
0.00101004
0.00100614
0.000483447
0.000485784
0.000492986
0.000515704
0.000552401
0.000598295
0.000659932
0.000730182
0.000778208
0.000801773
0.00046084
0.000456719
0.000456778
0.000467652
0.000491713
0.000526161
0.000560447
0.000602744
0.000634978
0.000662699
0.000450099
0.000442581
0.000440399
0.00044306
0.000456064
0.00048197
0.000510486
0.00054094
0.000556864
0.000573186
0.000447202
0.000438527
0.00043554
0.000436485
0.000442622
0.000460879
0.00048658
0.000508571
0.000516925
0.00052862
0.000458776
0.000443481
0.000440617
0.00044125
0.000443832
0.000453693
0.000473884
0.000490489
0.000501482
0.000519573
0.000543259
0.000596521
0.000705533
0.000891648
0.0011245
0.00125709
0.00129412
0.00130935
0.00134507
0.0014045
0.000520617
0.000564576
0.00063674
0.000786397
0.00105918
0.00125114
0.00129906
0.00131324
0.0013305
0.00136228
0.000514105
0.000553161
0.000605105
0.000704222
0.0008896
0.00116699
0.00127362
0.00128556
0.00126055
0.0012531
0.000490588
0.000511814
0.00054348
0.000612536
0.000734654
0.000909652
0.00113885
0.00121348
0.00121058
0.00110972
0.000463677
0.000478155
0.000501695
0.000543302
0.000617119
0.000722499
0.000861358
0.0010171
0.0010829
0.00105335
0.000439868
0.000446398
0.00045983
0.000485563
0.000528488
0.000596218
0.000673079
0.000762954
0.000833031
0.000872664
0.000424466
0.000422453
0.000427934
0.000440775
0.000465683
0.000505317
0.000555971
0.00060948
0.000651221
0.000690179
0.000420804
0.000411546
0.000411428
0.000417599
0.000430375
0.000449447
0.000478296
0.000513527
0.000539013
0.000574902
0.000426202
0.000411613
0.000407552
0.000410493
0.000418532
0.000430315
0.000442904
0.000457941
0.000469539
0.000491736
0.000440474
0.000420919
0.000412315
0.000412959
0.000418281
0.000429193
0.000440639
0.000448932
0.000453035
0.000469126
0.000485197
0.000551188
0.000654472
0.000826637
0.00107284
0.00124769
0.00129399
0.00128538
0.00133899
0.00172272
0.000497761
0.000545566
0.000618332
0.000784753
0.00106726
0.0012622
0.00133727
0.00141941
0.00153155
0.00172874
0.000465605
0.000520307
0.000592227
0.000712414
0.000938659
0.00121542
0.00132519
0.00140556
0.00157329
0.00171164
0.000447482
0.000474748
0.000523388
0.0006184
0.000769217
0.00102069
0.00124706
0.00133933
0.00144745
0.00149698
0.000423648
0.000442674
0.000477942
0.000538679
0.000636278
0.000788805
0.00101585
0.00119861
0.00126405
0.00126304
0.000406999
0.000413216
0.000433499
0.00047119
0.000536262
0.000625101
0.00075223
0.000907591
0.00101853
0.00106811
0.000395331
0.000393629
0.000400416
0.000421354
0.000461771
0.000516159
0.000586572
0.000675031
0.000753282
0.000823641
0.000391329
0.00038483
0.000384246
0.000392386
0.000409063
0.000445818
0.000485854
0.00053255
0.000570175
0.000625025
0.000389239
0.000383016
0.000380137
0.000381538
0.000386744
0.000402589
0.000428792
0.000455549
0.00047043
0.000498456
0.000396081
0.000385922
0.000383812
0.000384348
0.000387497
0.000390661
0.000401698
0.000418538
0.000429579
0.000446651
0.000452807
0.000518932
0.000603598
0.000751943
0.000999005
0.00122495
0.00128966
0.00116975
0.0012199
0.00147372
0.000481456
0.000526189
0.000595328
0.000766708
0.00105179
0.00129956
0.00137397
0.0013624
0.00136884
0.00161584
0.000437825
0.000497997
0.000581261
0.000724884
0.000976655
0.00130555
0.00147842
0.00157433
0.00166391
0.00175153
0.000421925
0.000452299
0.000517795
0.000639748
0.000850081
0.00119123
0.00150244
0.00165739
0.00183389
0.00188506
0.000392298
0.000419235
0.000466239
0.000553887
0.000706459
0.000978258
0.00137705
0.00161838
0.00180395
0.00187396
0.000371824
0.000385778
0.000417114
0.000478531
0.000578053
0.0007537
0.00105955
0.00143987
0.00167588
0.00177764
0.000356425
0.000362212
0.000378823
0.000417729
0.00048075
0.000582694
0.000755884
0.00102616
0.00132058
0.00152392
0.000344922
0.000347763
0.000356398
0.000373959
0.000415888
0.000473512
0.000561411
0.000684002
0.000816672
0.00097311
0.00033734
0.000338792
0.000344717
0.000352202
0.000376482
0.000412294
0.000458196
0.000510228
0.000542226
0.00060163
0.00035095
0.000338152
0.000343602
0.000348671
0.000355332
0.000380392
0.000414057
0.000439843
0.000446003
0.000443059
0.000435669
0.000490773
0.000576579
0.000687996
0.000875547
0.00115698
0.00126898
0.00119324
0.00125774
0.00122434
0.000467878
0.000514085
0.000581218
0.000737817
0.00101708
0.0013196
0.0014249
0.00138255
0.00139933
0.0013341
0.000405618
0.000483879
0.000580554
0.000755336
0.0010797
0.00148355
0.00162989
0.00166428
0.00169827
0.00155474
0.000382244
0.000429939
0.000527066
0.000711039
0.00106331
0.00156201
0.00181618
0.00191398
0.00197571
0.00180447
0.000349286
0.000396081
0.000470225
0.000620214
0.000933687
0.00148176
0.0019503
0.00211778
0.0021639
0.00193538
0.000327516
0.000354154
0.000411877
0.000517357
0.000737175
0.00119639
0.00186398
0.00219138
0.00230105
0.00220924
0.000314923
0.000325125
0.000364146
0.000438893
0.000583435
0.000897907
0.00151399
0.00209755
0.00232868
0.00238907
0.000311065
0.000309402
0.000330625
0.000382604
0.000471254
0.000661814
0.00105012
0.00169891
0.0021087
0.00228201
0.00032187
0.000306743
0.000311028
0.000344176
0.000400085
0.000504649
0.000697748
0.000981563
0.00126326
0.00143022
0.000339689
0.000315692
0.000308269
0.000321506
0.000360604
0.000427179
0.000544965
0.000645148
0.000614698
0.000524207
0.000432709
0.000460077
0.000526289
0.000610976
0.000734654
0.000988983
0.00131663
0.0013629
0.00107113
0.00117537
0.000439322
0.000483727
0.000552988
0.000692359
0.000942336
0.00132814
0.00153637
0.00157235
0.00125102
0.00120322
0.00036861
0.000454699
0.000572088
0.000761052
0.00110987
0.00157789
0.0018023
0.00188173
0.00159056
0.00128053
0.000340719
0.000400767
0.000529076
0.000749235
0.00116225
0.00175353
0.00210316
0.00220899
0.00195513
0.00146036
0.000323919
0.000372487
0.000476797
0.00068252
0.00111607
0.00183375
0.00232488
0.00243836
0.0021632
0.00163978
0.000315705
0.000335652
0.000420065
0.000601633
0.00102022
0.00183975
0.00259676
0.00277217
0.00253997
0.00190931
0.000315322
0.000316831
0.000369191
0.000519518
0.000903686
0.0017734
0.00268755
0.00287961
0.0026327
0.00203805
0.000332408
0.000310936
0.00033087
0.000440414
0.000747419
0.0015409
0.0026745
0.00306434
0.00287467
0.00236758
0.000353709
0.000324899
0.000312523
0.000373456
0.00057733
0.00112665
0.00238792
0.00295413
0.00305752
0.00313988
0.000357639
0.000329203
0.000309889
0.000337589
0.000465383
0.000850931
0.00170836
0.00238797
0.00227644
0.00187698
0.000472941
0.000462394
0.00048642
0.000548594
0.000644252
0.000938674
0.00169259
0.00127509
0.00119342
0.0038438
0.000408781
0.000466855
0.000553956
0.000694176
0.000965915
0.00161873
0.00191741
0.0013213
0.00117784
0.00363313
0.000368236
0.000461506
0.000595853
0.000838446
0.00134126
0.00209576
0.0021703
0.00143184
0.00119164
0.00318373
0.00034257
0.000415357
0.000586912
0.000941323
0.00176754
0.0024661
0.00247939
0.00161131
0.0012462
0.0027572
0.000335443
0.000396073
0.000575375
0.0010307
0.00218142
0.00281813
0.00280223
0.00183404
0.00136863
0.00238089
0.000337462
0.000370761
0.000565972
0.00117511
0.00261024
0.00315614
0.00311725
0.002158
0.00157278
0.00209371
0.000359459
0.000359307
0.000553288
0.00137675
0.00301644
0.00353477
0.00344516
0.00246386
0.00193552
0.00208794
0.000423915
0.000361602
0.000521559
0.00147377
0.00328326
0.00384009
0.00380674
0.00285833
0.00229567
0.00214612
0.000456123
0.000401534
0.000493584
0.00144518
0.00333462
0.00389207
0.00392049
0.00302647
0.00252256
0.00234087
0.00046949
0.000400774
0.000506044
0.00132711
0.00330833
0.00405799
0.00429122
0.0037228
0.00325283
0.00312471
0.000585385
0.000476636
0.000496519
0.000549568
0.000617938
0.00105665
0.00103673
0.00114459
0.00381416
0.00955124
0.000422346
0.000505997
0.000667586
0.000984319
0.00124104
0.00136062
0.0012501
0.00163535
0.00497968
0.0103612
0.000428636
0.000625285
0.0011339
0.00153505
0.00163373
0.00156212
0.00146633
0.00216744
0.00640296
0.010258
0.000424447
0.000693169
0.00148145
0.00185337
0.00191645
0.00176065
0.0017184
0.00272033
0.00748153
0.0098185
0.000448694
0.000772874
0.00173451
0.00213936
0.00219508
0.00198495
0.00193537
0.00306252
0.00747684
0.00962451
0.000483291
0.000823107
0.00194372
0.00241383
0.00246638
0.00222716
0.0021544
0.0030346
0.00725055
0.00931352
0.00053124
0.000829289
0.00214468
0.00274682
0.00281907
0.00248117
0.00232182
0.00290585
0.00665959
0.00892006
0.000624962
0.000790222
0.00222233
0.00299982
0.00310016
0.00277848
0.00257984
0.00284935
0.00577317
0.00810536
0.000708416
0.000803698
0.00227697
0.00333181
0.00350401
0.00317295
0.00288418
0.00288826
0.0044988
0.00740888
0.00098897
0.000947368
0.00254799
0.00354928
0.00370939
0.00345942
0.00316611
0.00300218
0.00370021
0.00564095
0.00056099
0.000528721
0.000554278
0.000564198
0.000607399
0.000725621
0.000913124
0.00294824
0.0101949
0.0125863
0.000522151
0.000694906
0.000766611
0.000771251
0.000861256
0.000964814
0.00157027
0.00537988
0.0110767
0.0114855
0.000843269
0.00116857
0.00120928
0.00117317
0.00115878
0.00140223
0.00327064
0.00881512
0.0103311
0.00739599
0.00110228
0.00149487
0.00154391
0.0014846
0.00150132
0.00227833
0.00606811
0.00869629
0.00835517
0.00411437
0.00140454
0.00179324
0.00186562
0.00183667
0.00202614
0.00357746
0.00721095
0.00826834
0.00614725
0.00307794
0.0016178
0.00205835
0.00214872
0.00215059
0.00254499
0.00461953
0.00737765
0.00774763
0.00492371
0.00283652
0.00174856
0.00226453
0.00243596
0.00249997
0.00301457
0.00527136
0.00731999
0.00734343
0.00432516
0.00288842
0.00184588
0.00246638
0.00270307
0.00279072
0.00334293
0.00551067
0.00719406
0.00712565
0.0043366
0.00307612
0.00184883
0.00252724
0.00290322
0.00308919
0.00358613
0.00546904
0.00711049
0.00704632
0.00442425
0.00329642
0.00196106
0.00266145
0.00318298
0.00337869
0.00378815
0.00521904
0.00689353
0.00713504
0.00486204
0.00365418
0.000771409
0.000755464
0.000733844
0.000698903
0.000728002
0.00104553
0.0034325
0.0105244
0.0115261
0.0114774
0.000811339
0.000849634
0.000804669
0.000799705
0.00101192
0.0021239
0.0075726
0.0108431
0.0110579
0.0105135
0.00102652
0.0010782
0.00101292
0.00106712
0.00172241
0.00501849
0.00969188
0.0105044
0.00923462
0.00645182
0.0013935
0.00139737
0.00133267
0.00153196
0.0033108
0.00793782
0.00956628
0.00925841
0.00549054
0.00379442
0.00165649
0.00167125
0.00169396
0.00239993
0.0055252
0.008632
0.00910499
0.00680178
0.00380796
0.00284708
0.00203475
0.0020773
0.0021888
0.00333407
0.00699389
0.00855928
0.00815379
0.00491826
0.00302196
0.0024578
0.00222682
0.00229258
0.00258751
0.00422124
0.00751568
0.00844183
0.007411
0.00393171
0.00264601
0.00232699
0.00251587
0.00270599
0.00310295
0.00492854
0.00762497
0.00819972
0.00650168
0.00340277
0.00247454
0.00229566
0.0027067
0.00285115
0.00328289
0.0051015
0.00761739
0.0082034
0.00642486
0.00337993
0.00247828
0.00227759
0.00283184
0.00315031
0.0036476
0.0053484
0.00761819
0.00827857
0.00682316
0.0035603
0.00251207
0.00230454
0.00135385
0.00115061
0.00101027
0.000967355
0.00104421
0.00173985
0.00697
0.00866548
0.00830318
0.00863436
0.00116541
0.00112945
0.00102743
0.00105488
0.00142618
0.00336356
0.0080427
0.00882554
0.00886237
0.00994404
0.0012059
0.00119519
0.00113195
0.00128651
0.00224864
0.00615207
0.00884206
0.00935339
0.0096552
0.0100078
0.00146744
0.00143658
0.00139759
0.00177398
0.00390136
0.00805508
0.00929433
0.00945619
0.0094711
0.00887563
0.00177161
0.00168378
0.00173838
0.00274373
0.0064472
0.00893224
0.00940139
0.00933684
0.00871544
0.00634025
0.00227302
0.00219365
0.00244823
0.00420358
0.00796259
0.00923744
0.00937382
0.00882869
0.00695736
0.00469696
0.00256294
0.00244467
0.00298249
0.00573557
0.00872529
0.00936591
0.00929494
0.00821657
0.00592866
0.00413908
0.00285161
0.00297373
0.00388917
0.00701343
0.00905616
0.00942244
0.00906259
0.00753029
0.00501764
0.00362756
0.00309093
0.00315754
0.00417914
0.00759189
0.00928365
0.00955046
0.00907259
0.00730311
0.00480869
0.00353628
0.00321319
0.00352028
0.00481381
0.00826613
0.00941895
0.00966319
0.00927045
0.00755726
0.00425586
0.00333648
0.00164741
0.00165249
0.00163941
0.00179778
0.00199481
0.0033493
0.00542995
0.00514173
0.00513052
0.00559309
0.00175606
0.00181093
0.00183855
0.00211276
0.00252474
0.0041119
0.00574977
0.00552684
0.00543407
0.00570853
0.0021745
0.00209849
0.00224142
0.00267755
0.00349409
0.00529652
0.00618554
0.00588002
0.00585104
0.00601577
0.00294594
0.00280198
0.00312744
0.00380872
0.00513857
0.00629294
0.0067084
0.00621092
0.00623003
0.00630795
0.00399436
0.00364175
0.00421019
0.0052694
0.00647944
0.00700567
0.00684231
0.00638596
0.00639716
0.00645898
0.00509415
0.00455002
0.00520889
0.00645523
0.00723178
0.00729918
0.00684862
0.00652266
0.00658603
0.00665851
0.00581335
0.00501908
0.00549795
0.00700815
0.00771882
0.00745632
0.00687878
0.00668613
0.00670722
0.00716752
0.00688411
0.00595857
0.00623093
0.00755055
0.00812388
0.00770898
0.00699461
0.00690353
0.00696606
0.00736632
0.00706023
0.00629419
0.00653744
0.00776947
0.00853618
0.00825821
0.00732009
0.0070159
0.00715557
0.00777799
0.00744794
0.00691589
0.00712557
0.00817589
0.0090638
0.00903684
0.00852524
0.0074303
0.00724757
0.00829588
0.00522083
0.0063742
0.00675286
0.00733165
0.00765695
0.00778567
0.00589324
0.00530011
0.00539862
0.00574756
0.00616881
0.00614097
0.00674824
0.00743312
0.00813578
0.0090022
0.00912522
0.00779304
0.00717412
0.00706846
0.00657631
0.00648128
0.00681388
0.00748748
0.00805716
0.00851993
0.00989437
0.0103661
0.00994491
0.00873781
0.00664671
0.0065185
0.00670728
0.00742768
0.00805178
0.00829827
0.00885149
0.0106367
0.0108946
0.0102404
0.00590075
0.00583067
0.00608963
0.00692059
0.00772749
0.00819057
0.00847036
0.00960025
0.0107217
0.00996508
0.00541045
0.00557494
0.00595646
0.00683585
0.00746963
0.0079894
0.00825318
0.00892854
0.0103267
0.00853504
0.00532392
0.00553879
0.00594821
0.00684217
0.0073961
0.00794217
0.00819411
0.00859676
0.00980431
0.00799417
0.00533178
0.00571734
0.00619523
0.00699737
0.00739224
0.00806748
0.00831835
0.008614
0.00950891
0.00794704
0.00538155
0.00606006
0.0066414
0.00725193
0.007756
0.00888711
0.00918774
0.00905767
0.00942537
0.00795514
0.00601597
0.00683066
0.00729357
0.00786701
0.00927609
0.0116091
0.0119278
0.0111635
0.00967257
0.0079501
0.00610407
0.00593846
0.00557151
0.00540147
0.00537124
0.00535648
0.00542025
0.00553763
0.00559814
0.00573984
0.00571747
0.00515866
0.00494738
0.00484659
0.00487188
0.00499992
0.00523908
0.00538669
0.00544775
0.00560187
0.00521983
0.00474962
0.00451985
0.00449128
0.00461899
0.00487843
0.00517443
0.00537309
0.00542219
0.00556496
0.00439337
0.00406314
0.00406588
0.00424642
0.00454436
0.00488479
0.00520664
0.00549028
0.00552378
0.00560945
0.00381682
0.0037818
0.00391355
0.0042387
0.00462551
0.00525418
0.00579654
0.00602484
0.00594491
0.00587154
0.00355891
0.00366868
0.00393684
0.00458493
0.00548186
0.00657935
0.00725603
0.00719329
0.00676485
0.00635494
0.00346505
0.0037616
0.00444735
0.00589107
0.00766005
0.00893039
0.00908932
0.00881287
0.00784295
0.00670697
0.0036598
0.0044918
0.00612749
0.00874352
0.00965634
0.00993119
0.00986926
0.00958924
0.00861516
0.00739481
0.00466832
0.00609906
0.0087221
0.0101609
0.0101361
0.0101296
0.00995803
0.00944006
0.00831879
0.00711802
0.00555001
0.0075339
0.00982206
0.0106198
0.01012
0.00983513
0.00953686
0.00884745
0.00766944
0.00565868
0.00453698
0.0050697
0.00539042
0.00554651
0.00564096
0.00570868
0.00578629
0.0057779
0.00562465
0.00395238
0.00443826
0.00499803
0.00536147
0.00553828
0.00561066
0.00565678
0.00566127
0.00562036
0.00532168
0.0043247
0.00447338
0.00514242
0.00553183
0.00571412
0.00572155
0.00569631
0.00563202
0.0054597
0.00480636
0.00394631
0.00468211
0.00538542
0.00573345
0.00591489
0.0058901
0.00578012
0.0055055
0.00484843
0.00336596
0.00254386
0.00497967
0.00567242
0.00600296
0.00620869
0.00614806
0.00580664
0.00483497
0.00300174
0.00209544
0.00175878
0.00533518
0.00594761
0.0062808
0.00663793
0.00650532
0.00548151
0.00328211
0.00220656
0.00175035
0.00158415
0.00564289
0.00622972
0.00669414
0.0072965
0.00670711
0.00426673
0.00271424
0.00204293
0.00169957
0.00156565
0.00589667
0.00647845
0.00707183
0.0077702
0.0065425
0.00361936
0.00253402
0.00205346
0.00183879
0.00172067
0.00601533
0.00660776
0.00722398
0.00787824
0.00579556
0.00337002
0.00259581
0.00227895
0.00216798
0.00214249
0.00605976
0.00664707
0.00716555
0.00738641
0.00519561
0.00313331
0.00257246
0.00236242
0.00231318
0.00231043
0.0040054
0.00414132
0.00430715
0.00442132
0.00460474
0.00459765
0.00437603
0.00362087
0.00359394
0.00441958
0.00391277
0.00399502
0.00409964
0.00426013
0.00445468
0.00442786
0.00411323
0.00340569
0.0036003
0.00367993
0.00388856
0.00390414
0.00399602
0.00419489
0.00438618
0.00432323
0.00394295
0.00329291
0.00350686
0.00358028
0.00388888
0.0038098
0.00388045
0.00416845
0.00435226
0.00421198
0.00366737
0.00305735
0.00322029
0.00343779
0.0038609
0.00368605
0.00379155
0.00418885
0.00430155
0.00396626
0.00322488
0.0028456
0.00285943
0.00313069
0.00375492
0.00356948
0.00374738
0.00425188
0.00423718
0.00348061
0.00286674
0.00262178
0.00258666
0.00268316
0.0035642
0.00341417
0.00369776
0.00426158
0.00395254
0.0030586
0.0026384
0.00241812
0.00235768
0.00234705
0.00342074
0.00329409
0.0036481
0.0041333
0.00364218
0.00282364
0.00243837
0.00217208
0.00206323
0.00199632
0.00334974
0.00317038
0.00346312
0.00386078
0.00343501
0.00254446
0.00221493
0.00202357
0.00193591
0.001786
0.00325257
0.00307164
0.0033943
0.00372109
0.00310648
0.00231492
0.00198729
0.00176658
0.00163817
0.00145166
0.00332304
0.00313819
0.00348868
0.00355695
0.00349265
0.00338923
0.00339455
0.00400766
0.00472027
0.00351483
0.00267656
0.00302498
0.00339546
0.00350668
0.00345783
0.00332307
0.0033212
0.00346499
0.00478802
0.00472412
0.00248428
0.00297399
0.00335521
0.0034553
0.00342324
0.00325901
0.0031814
0.00325289
0.00407836
0.00504531
0.00243532
0.0029736
0.00334419
0.00342675
0.00339026
0.00318969
0.00306169
0.0031082
0.00354152
0.00495642
0.00243249
0.00313306
0.00338005
0.00340578
0.00333804
0.00308231
0.00293935
0.00298389
0.00344204
0.00491896
0.00272144
0.00333618
0.00343888
0.00339978
0.00325464
0.00293012
0.00280562
0.00286571
0.00360376
0.00425156
0.00313989
0.00352504
0.00354684
0.0033848
0.0030465
0.0027046
0.00264959
0.00276135
0.00364412
0.00276522
0.00354445
0.00371725
0.00360019
0.00319984
0.00273511
0.00246359
0.0024776
0.00263082
0.00358333
0.00294109
0.0038034
0.00383923
0.0035851
0.00289123
0.00241909
0.00221414
0.00224764
0.00237391
0.00325859
0.00329135
0.004001
0.00389023
0.00331624
0.00248385
0.0021217
0.00199459
0.00203412
0.00214393
0.00267947
0.00263858
0.00668738
0.00251216
0.00347103
0.0038274
0.00411506
0.00422524
0.0038658
0.00377285
0.00394506
0.00344658
0.00249467
0.00231037
0.00292896
0.00317615
0.00339465
0.00387512
0.00398157
0.00330936
0.00327561
0.0031762
0.00181763
0.00220551
0.00276637
0.00308041
0.00315142
0.00332316
0.00400142
0.00395211
0.00305331
0.00294855
0.00176508
0.00206454
0.00268207
0.00312503
0.00319865
0.00311414
0.00324783
0.00514975
0.00313477
0.00294418
0.00174119
0.00202679
0.00265883
0.00321556
0.00336554
0.00326971
0.00312747
0.00399718
0.00384868
0.00304243
0.0017378
0.00217099
0.00293509
0.00342838
0.00350682
0.00344166
0.00321336
0.00326922
0.003994
0.00344222
0.00193242
0.00256585
0.00323994
0.0036751
0.00372018
0.00362308
0.00338117
0.00321128
0.00388457
0.00348044
0.00248137
0.00303122
0.00376506
0.0041743
0.00415935
0.00398093
0.00363488
0.00327958
0.00370211
0.00372911
0.00317357
0.00378453
0.00461295
0.00476539
0.00458161
0.00419695
0.0039273
0.0034612
0.00352457
0.00348138
0.00400694
0.00486072
0.00523312
0.00504403
0.00461133
0.00417714
0.00399998
0.00357824
0.00390721
0.00703847
0.00151144
0.00131262
0.00125279
0.00132535
0.001351
0.00135641
0.00137407
0.00147552
0.0017936
0.00255392
0.00139331
0.00128048
0.00133682
0.00147116
0.00153795
0.00167175
0.00201987
0.00294624
0.00405967
0.00460937
0.00136289
0.00137378
0.00162848
0.0018149
0.00201106
0.00252898
0.0033984
0.00434208
0.00489417
0.00514882
0.00149326
0.00177039
0.00215652
0.00237238
0.00276168
0.00340867
0.00419666
0.00469788
0.00488838
0.00493145
0.00178624
0.00224378
0.00263587
0.00289034
0.00327004
0.00379562
0.00437055
0.00462708
0.00463278
0.0038905
0.00182021
0.00224813
0.00274773
0.00306708
0.00337863
0.00384703
0.0042884
0.00439414
0.00414247
0.00370069
0.00188688
0.00209376
0.00266795
0.00305394
0.00333924
0.00374804
0.00410732
0.00420107
0.00407347
0.00375602
0.00210745
0.0020212
0.00232871
0.00288254
0.00321608
0.00352032
0.00386082
0.00406556
0.00401484
0.00372345
0.0022241
0.00216045
0.00219234
0.00247019
0.00284832
0.00311058
0.00329687
0.00370159
0.0039213
0.00397302
0.00228273
0.00242462
0.00234987
0.00245557
0.00264296
0.00282311
0.00294905
0.00310201
0.00357524
0.00383185
0.00728181
0.00695253
0.00556594
0.00305375
0.00214457
0.0023381
0.00264417
0.00303228
0.00313696
0.00432714
0.00783424
0.00695836
0.00593314
0.00415368
0.00284055
0.00311367
0.00282897
0.00317981
0.00348993
0.00522728
0.00794904
0.00740026
0.00657038
0.00523855
0.00373953
0.00335478
0.00303384
0.00333372
0.00410024
0.00664127
0.00760614
0.00862245
0.0082304
0.00702189
0.00552874
0.00392627
0.00315089
0.00365394
0.00446806
0.0062191
0.00523204
0.00832804
0.00910379
0.00871201
0.00700994
0.00432658
0.00336325
0.00408598
0.00483514
0.00545366
0.00304978
0.00614072
0.00892527
0.0097005
0.00899151
0.00519795
0.00383663
0.00400972
0.00476603
0.00500563
0.00303996
0.00434179
0.00788357
0.0100701
0.0105366
0.00670498
0.00447159
0.00385187
0.00459916
0.00452604
0.00512983
0.00694738
0.00785494
0.00865061
0.0105424
0.00835719
0.00470505
0.00375839
0.00440295
0.00447158
0.00375527
0.00464721
0.00503791
0.00534495
0.00720019
0.00711112
0.00511331
0.00337987
0.00351327
0.00379946
0.00484508
0.00642849
0.00538765
0.00662456
0.00712831
0.00665366
0.00597231
0.00469549
0.00400226
0.00366452
0.00500531
0.00555451
0.00712506
0.0121777
0.017813
0.0192293
0.0207381
0.0264677
0.032662
0.0249984
0.00475065
0.00593357
0.00536761
0.00737847
0.0132131
0.0176278
0.0184553
0.0188079
0.0134578
0.00894641
0.00461483
0.00716106
0.00409865
0.00410009
0.00591714
0.01252
0.0137975
0.0144434
0.00967298
0.00787663
0.00244661
0.00629382
0.0057562
0.00336536
0.00335299
0.00726986
0.0130599
0.0132203
0.0101615
0.00992229
0.0020338
0.00214266
0.00365325
0.00430048
0.00379227
0.00465824
0.0125818
0.0130298
0.0122071
0.0103356
0.00220292
0.00153923
0.00192822
0.00245658
0.00486918
0.00949805
0.0100747
0.0130438
0.0126559
0.0100561
0.00242072
0.00133904
0.00226641
0.00339007
0.00291756
0.00424771
0.00442548
0.0105272
0.0116139
0.00967187
0.00256633
0.00227316
0.00488611
0.00613909
0.00603246
0.00376295
0.00493734
0.0105542
0.00950691
0.00818265
0.00668517
0.00684186
0.00703151
0.00770148
0.0087018
0.00822684
0.00855914
0.0145151
0.0387128
0.0284674
0.00619817
0.00611264
0.00531992
0.0050384
0.00851485
0.0150511
0.0103613
0.0373188
0.0583336
0.0121444
0.00200255
0.0020275
0.00214289
0.00152072
0.00135602
0.00136446
0.001599
0.00183569
0.00189546
0.00136152
0.0017871
0.00200481
0.00212417
0.00182071
0.00139351
0.00137041
0.00147891
0.00130745
0.00161611
0.00120722
0.00122833
0.00135122
0.00150736
0.00134765
0.00160277
0.00103653
0.000888579
0.000887453
0.000974506
0.0010076
0.0012403
0.00123422
0.00125108
0.00122206
0.00120595
0.00133782
0.00143483
0.00102967
0.00129326
0.00142299
0.00253899
0.00202425
0.00160662
0.00140707
0.00127138
0.00131654
0.00197713
0.0015289
0.00117217
0.00146688
0.00319719
0.00309835
0.00294006
0.00267545
0.00216213
0.00156339
0.0017119
0.00183559
0.00181166
0.00212233
0.00379634
0.00327234
0.00307303
0.00295356
0.00287059
0.00247507
0.00194891
0.00195061
0.0019916
0.00258249
0.00227924
0.00254045
0.00279487
0.00285898
0.00286404
0.00265989
0.00227519
0.00228504
0.00250033
0.00260362
0.00195819
0.0027194
0.00280631
0.00291687
0.00296059
0.00273862
0.00256521
0.00255873
0.0023583
0.00344421
0.00189048
0.00266166
0.00269026
0.00281775
0.00302382
0.00322585
0.0028834
0.00254891
0.00330573
0.00409317
0.000758264
0.000642291
0.00126728
0.00154407
0.00179
0.000748607
0.000405663
0.000378442
0.00032176
0.000868112
0.00120122
0.000646999
0.000859547
0.000978506
0.000995923
0.000410095
0.000323611
0.00028953
0.000281333
0.002739
0.00624456
0.00177052
0.000984688
0.000506264
0.000407507
0.000277204
0.000249407
0.000220727
0.000250395
0.00433193
0.00553545
0.00577957
0.00594145
0.00495874
0.00255815
0.000632099
0.000323573
0.000243822
0.000275451
0.00255313
0.00107343
0.00164862
0.00413839
0.00611559
0.00611927
0.00462053
0.00102993
0.00049858
0.000286817
0.000831689
0.00390918
0.00432752
0.00435816
0.00529486
0.00612811
0.00613117
0.00500304
0.00194147
0.00073173
0.00031232
0.0029659
0.0038064
0.00563666
0.00583669
0.00602026
0.00601376
0.00623149
0.00552286
0.00171828
0.000523883
0.00228263
0.00205302
0.00294405
0.00446342
0.00557173
0.00570306
0.00680122
0.00598006
0.00171728
0.00052058
0.00419671
0.00307613
0.00294925
0.003889
0.00479792
0.00580271
0.00937764
0.00390716
0.000677774
0.000582456
0.00425332
0.00710452
0.00404957
0.00517509
0.0069485
0.0103629
0.00371836
0.000600758
0.000748081
0.00118824
0.000511579
0.00125667
0.0037039
0.000680417
0.000242555
0.00028042
0.000457154
0.000719902
0.000873233
0.000349371
0.00197328
0.00201218
0.00172146
0.000233821
0.000200413
0.000232505
0.000361794
0.000738523
0.000914137
0.000227806
0.000736365
0.000662874
0.000284625
0.000185935
0.000184371
0.000188625
0.000197246
0.000238858
0.000262598
0.000184266
0.000268476
0.000223007
0.000202925
0.000196735
0.000194093
0.000190145
0.000186393
0.000183139
0.000176383
0.000169471
0.000293403
0.000210069
0.000207862
0.00020986
0.000210048
0.000204164
0.000196456
0.000189079
0.000179542
0.0001701
0.00099829
0.00022392
0.000212636
0.000213539
0.000213852
0.000212369
0.000206492
0.00019737
0.000183668
0.000174762
0.000506763
0.000260582
0.000213875
0.000212778
0.000213256
0.000213933
0.000213247
0.000207917
0.000200776
0.000191444
0.000352389
0.000269336
0.000218577
0.000215471
0.000217198
0.000222907
0.000227096
0.000224751
0.000212101
0.000196245
0.000281763
0.000261812
0.000219364
0.000216072
0.000220447
0.000232268
0.00023521
0.000227585
0.000206824
0.000188819
0.00024845
0.000240867
0.000218065
0.000214386
0.000218166
0.000227303
0.000226528
0.000215746
0.000193176
0.000185841
0.00191124
0.00179756
0.00173066
0.00170261
0.00169118
0.00166277
0.00162877
0.00161745
0.00162202
0.00166119
0.00190755
0.00186387
0.00175625
0.00168012
0.0016342
0.00159861
0.00157041
0.00155751
0.00154483
0.00155036
0.00186044
0.00185563
0.00181972
0.0017322
0.00165309
0.0016016
0.00155694
0.00152506
0.00150969
0.00150031
0.00178924
0.00180939
0.0018076
0.00178284
0.00172139
0.00164661
0.00157879
0.0015298
0.00149559
0.00148452
0.00173712
0.00176662
0.00178751
0.00178711
0.00176987
0.00172025
0.00165199
0.00156826
0.00151273
0.00150346
0.00172649
0.00173745
0.00177291
0.00179365
0.00179368
0.00177534
0.0017236
0.00164697
0.0015634
0.00151247
0.00175265
0.00175578
0.00178683
0.00181537
0.00181493
0.00180388
0.00177086
0.00171922
0.00163161
0.00155268
0.00182238
0.00182541
0.00184123
0.00184528
0.00184073
0.00182691
0.00179298
0.00174942
0.00168706
0.00159232
0.00194943
0.00192282
0.00189493
0.00188369
0.00187057
0.00184351
0.00180318
0.00175446
0.00170592
0.00161768
0.00212142
0.00204006
0.00196499
0.00192826
0.00190308
0.00186973
0.00182377
0.00175896
0.0017164
0.00163148
0.00173024
0.00169692
0.0016402
0.00163181
0.00163528
0.00162401
0.00158848
0.00157161
0.00157862
0.0016148
0.00171337
0.00171128
0.00167347
0.00160262
0.00156662
0.00153707
0.00151217
0.00149584
0.00149367
0.00149394
0.00164743
0.00168646
0.00168849
0.00165705
0.00158653
0.00153654
0.00150051
0.00147123
0.0014558
0.00145428
0.00155057
0.00162005
0.0016593
0.00166415
0.00164547
0.00158653
0.00152811
0.00148352
0.00145275
0.00144937
0.00150908
0.00154523
0.00161017
0.00165308
0.00166121
0.00164843
0.00161007
0.00154795
0.00148395
0.00145699
0.00150945
0.00152144
0.00157141
0.00163832
0.00167859
0.00168694
0.00167575
0.0016374
0.001568
0.00150643
0.00154574
0.00155086
0.001583
0.00164468
0.00169389
0.00171914
0.00171998
0.00170319
0.00166012
0.00158195
0.00162081
0.00162354
0.00164666
0.00169039
0.00172568
0.00174315
0.0017432
0.0017318
0.00170431
0.00164262
0.00172459
0.00171755
0.00171848
0.00172934
0.00175456
0.00176362
0.00175918
0.00174076
0.00171544
0.00166102
0.00190573
0.00186728
0.00184082
0.00180683
0.00180406
0.00180334
0.00179149
0.00175196
0.00171701
0.00165676
0.00156306
0.00155655
0.00153065
0.00153292
0.0015482
0.00154956
0.00152555
0.00151337
0.00151661
0.00155267
0.0015493
0.00155946
0.00154312
0.00150327
0.00147939
0.0014582
0.00144289
0.00143494
0.00143957
0.00143664
0.001486
0.00153728
0.00154964
0.00153769
0.00149226
0.00145413
0.00143062
0.0014124
0.00140577
0.00140443
0.00138313
0.00147079
0.00152707
0.00154173
0.00153532
0.00150078
0.00146451
0.00143233
0.00141022
0.00140139
0.00134578