/*--------------------------------*- C++ -*----------------------------------*\
  =========                 |
  \\      /  F ield         | OpenFOAM: The Open Source CFD Toolbox
   \\    /   O peration     | Website:  https://openfoam.org
    \\  /    A nd           | Version:  9
     \\/     M anipulation  |
\*---------------------------------------------------------------------------*/
FoamFile
{
    format      ascii;
    class       volScalarField;
    location    "79";
    object      f20.gas;
}
// * * * * * * * * * * * * * * * * * * * * * * * * * * * * * * * * * * * * * //

dimensions      [0 0 0 0 0 0 0];

internalField   nonuniform List<scalar> 
137980
(
0.000349529
0.000376759
0.000442237
0.000569352
0.000736634
0.000826261
0.000838211
0.000840345
0.00084752
0.000854598
0.000331773
0.000354758
0.000395843
0.000483892
0.000651363
0.000793062
0.000820346
0.000820832
0.000821085
0.000854548
0.000333003
0.000348126
0.000371392
0.000424577
0.000516742
0.000689433
0.000788363
0.000794133
0.000748524
0.000695873
0.000311951
0.000319598
0.000334366
0.000369768
0.000426885
0.000514063
0.000640903
0.000730157
0.000731669
0.000654543
0.000291554
0.000295703
0.000304725
0.000326532
0.000362411
0.000411245
0.000480519
0.000554279
0.000606667
0.000605303
0.000269086
0.000270639
0.000274762
0.000288547
0.000311712
0.000340635
0.000377763
0.00042266
0.000454105
0.000470001
0.000253757
0.000251285
0.000251235
0.00025762
0.000272275
0.000295168
0.00031659
0.000342042
0.000361426
0.000379136
0.000246427
0.000241959
0.000240693
0.000242364
0.000250131
0.000266816
0.000286395
0.000305804
0.000314836
0.000323399
0.000244007
0.00023905
0.000237482
0.000238245
0.000242222
0.00025347
0.000270566
0.00028483
0.000289444
0.000295543
0.000250269
0.000241524
0.000240174
0.000240816
0.000242862
0.000249597
0.000262132
0.000271797
0.00027773
0.000288698
0.000296714
0.0003375
0.000410014
0.000530028
0.00068532
0.000790022
0.000850024
0.0010193
0.00186172
0.00278262
0.000296214
0.000322621
0.000365394
0.000459213
0.000636872
0.000773528
0.000819611
0.000869094
0.0010185
0.00110839
0.000289808
0.000314103
0.000346078
0.000406681
0.000524922
0.000710293
0.000786833
0.000797843
0.000795221
0.000807586
0.000275241
0.000287955
0.000306621
0.000348373
0.000424356
0.000536337
0.000688105
0.0007427
0.000743274
0.000673658
0.000257522
0.000266209
0.000280543
0.000305788
0.000349677
0.000417004
0.000504794
0.000606545
0.000650139
0.000633326
0.000241699
0.000245643
0.000253531
0.000269158
0.000294476
0.000335887
0.000384628
0.000441446
0.000486247
0.000513138
0.000231269
0.000230055
0.000233126
0.000240852
0.000256393
0.000279359
0.000310547
0.000344805
0.000369987
0.000395114
0.000228356
0.000222942
0.000222817
0.000226398
0.000234674
0.000246502
0.000262982
0.000284579
0.000299259
0.00032251
0.000231149
0.000222599
0.000220306
0.000221983
0.000226919
0.000235392
0.000243022
0.000251478
0.000257226
0.000270208
0.00023919
0.000227585
0.000222876
0.000223359
0.000226577
0.000233703
0.000241577
0.000246254
0.000248177
0.000255354
0.000285174
0.000312758
0.000371776
0.000486031
0.000645689
0.000785406
0.000903309
0.0012733
0.00287767
0.00841537
0.000274767
0.000306047
0.000351908
0.00045609
0.000640524
0.000800386
0.000945686
0.00138131
0.00273444
0.00459548
0.000257464
0.00029107
0.000334978
0.000409194
0.000551333
0.000755057
0.00088087
0.00122685
0.00193443
0.00220778
0.000246367
0.000262406
0.000291184
0.000349786
0.000443685
0.000600879
0.00077918
0.000893818
0.00108432
0.00112871
0.000231085
0.000242668
0.000263642
0.000299223
0.000360005
0.000455454
0.000599081
0.00073559
0.000797411
0.000803075
0.000220404
0.000224286
0.000236284
0.000258222
0.000297951
0.000351884
0.000431292
0.000530996
0.000606676
0.000641909
0.000212861
0.000211877
0.000215992
0.000228496
0.000251317
0.000284819
0.000327462
0.000382368
0.000431182
0.000477484
0.000210356
0.000206407
0.000206043
0.000211016
0.000219766
0.000241601
0.000266257
0.000294382
0.000316313
0.000351154
0.000209135
0.000205377
0.000203527
0.000204515
0.000207867
0.000215649
0.000231292
0.000246922
0.000255694
0.000272199
0.000212766
0.000206984
0.000205587
0.000205957
0.000208268
0.000210347
0.000215288
0.000224445
0.000230292
0.00024254
0.000460497
0.000321308
0.00034179
0.000429418
0.000595835
0.000761583
0.000842522
0.000856101
0.00134691
0.00652845
0.000255962
0.000289744
0.000333465
0.000441954
0.000627783
0.00081217
0.000918365
0.00108016
0.00162214
0.00417736
0.0002377
0.000274975
0.000324923
0.000414141
0.000576954
0.00081035
0.000980425
0.00116476
0.00162091
0.00281203
0.000228423
0.000246101
0.000284699
0.000359797
0.000492772
0.000723471
0.000978343
0.00113728
0.00143862
0.00186205
0.000210622
0.000226795
0.000254343
0.000306647
0.000400865
0.000577991
0.000873588
0.00107292
0.00129375
0.00172354
0.000198674
0.000206695
0.000224704
0.000260623
0.000320205
0.000429222
0.000633659
0.000926045
0.00116405
0.00160607
0.000189174
0.000192795
0.000201853
0.000223075
0.000261006
0.000322189
0.000429923
0.000611259
0.000846985
0.00120125
0.000182235
0.000184263
0.000189055
0.000197756
0.000222554
0.000256032
0.000308568
0.000384657
0.00047378
0.000619773
0.000177335
0.000178759
0.000182455
0.000186219
0.000198566
0.000220118
0.000246552
0.000277301
0.000296864
0.000328926
0.00018493
0.000178079
0.000181741
0.000184639
0.00018739
0.000200628
0.000220888
0.000235077
0.000277543
0.000432647
0.000770551
0.000362593
0.000332189
0.000379769
0.000506726
0.000708408
0.000790882
0.000774583
0.0014463
0.00971707
0.000240235
0.000280938
0.000322832
0.000420632
0.000604737
0.000823542
0.000913564
0.000913369
0.00128145
0.00770368
0.000216988
0.000263978
0.000322123
0.000429627
0.000642964
0.000921739
0.00104409
0.00112165
0.00135805
0.00504287
0.000201275
0.000230036
0.000287443
0.000399632
0.000624302
0.000945921
0.00115541
0.00129636
0.0016325
0.00363544
0.000182178
0.000210383
0.000252512
0.000339981
0.000523077
0.000840964
0.00120814
0.0014836
0.0019913
0.00346199
0.000169045
0.000184569
0.000217503
0.000279301
0.000406651
0.000681516
0.00111718
0.00148935
0.00201209
0.00317588
0.000162306
0.000167448
0.000190304
0.000233382
0.000317815
0.000507843
0.000874696
0.00131455
0.00170334
0.0022138
0.000160226
0.000159201
0.000171012
0.000200868
0.000251405
0.000365788
0.000619
0.00116648
0.00321065
0.00604725
0.000166513
0.00015775
0.00015996
0.000178032
0.000210179
0.000270926
0.000392189
0.00061935
0.00119537
0.00475098
0.000176214
0.000162744
0.000158518
0.000165664
0.000187812
0.000225038
0.000293991
0.000335794
0.000935911
0.00231644
0.00198852
0.000652052
0.000360483
0.000354934
0.00041207
0.000581959
0.00082363
0.000846055
0.00073202
0.0152245
0.000219628
0.000259768
0.000301779
0.000388471
0.000553028
0.000827491
0.000984166
0.00115878
0.000836023
0.00910217
0.000191455
0.000241268
0.000311693
0.000431123
0.000664686
0.00100728
0.0013197
0.00151636
0.00100149
0.00518302
0.00017445
0.000207877
0.000284175
0.000422388
0.000701786
0.00117411
0.00175558
0.00210137
0.00138269
0.00418698
0.000166756
0.000191253
0.000252807
0.000379485
0.000685291
0.00135608
0.00205471
0.00221098
0.00177215
0.003473
0.000163954
0.000172635
0.000219661
0.000331208
0.000650388
0.00158214
0.00253953
0.00262542
0.00286877
0.0038776
0.000173332
0.000165527
0.000189178
0.000281379
0.00056676
0.00144704
0.00241705
0.00271558
0.00308964
0.00367852
0.000239533
0.000176008
0.000169324
0.000232921
0.000452233
0.00112075
0.00227025
0.00313407
0.00388561
0.00353606
0.00039871
0.000259679
0.000168305
0.000193017
0.000332338
0.000886854
0.00265546
0.00320376
0.00593469
0.0118814
0.000832751
0.000310055
0.000161528
0.000172658
0.000250473
0.000725133
0.00699196
0.00762556
0.00847574
0.0103631
0.00574619
0.00163392
0.000496555
0.000337836
0.000359255
0.000535056
0.00203129
0.00340909
0.0125435
0.0572759
0.000204198
0.000246089
0.000297276
0.000383754
0.000564938
0.0012799
0.0019375
0.00326821
0.0110672
0.0533319
0.00018925
0.000242889
0.000323903
0.000477892
0.000811802
0.00192653
0.00199937
0.00280454
0.00850357
0.0452166
0.000175692
0.000214392
0.000316914
0.000550329
0.00117441
0.00255258
0.00203792
0.00239368
0.00640188
0.0372479
0.000173575
0.000202632
0.000311884
0.000628797
0.00155697
0.00282144
0.00216737
0.00216157
0.00477823
0.0294411
0.000188726
0.000192475
0.000308415
0.000723465
0.00187179
0.00270867
0.00239153
0.0021642
0.00344718
0.0226651
0.000284633
0.000195292
0.000303771
0.000877173
0.00217593
0.0027223
0.00257751
0.00225265
0.00304889
0.0161964
0.000606954
0.000257002
0.000295177
0.00105245
0.00255365
0.00287405
0.0028007
0.00256766
0.0033471
0.012641
0.00111797
0.000534168
0.000291994
0.00106042
0.00263951
0.00287186
0.00292718
0.00275773
0.00337347
0.00765946
0.00261468
0.00032449
0.000372634
0.00186215
0.00522453
0.00410332
0.00373681
0.00343007
0.00363254
0.00793123
0.00950204
0.00167666
0.000448412
0.000338989
0.000360185
0.00116843
0.00604904
0.0248413
0.0543338
0.0486335
0.000212607
0.000265696
0.00035485
0.000574736
0.00100558
0.00329341
0.0112012
0.0303106
0.0469401
0.0426656
0.00022153
0.000332373
0.000609911
0.00106933
0.00190956
0.00503622
0.0137613
0.0319156
0.041492
0.0343999
0.000219169
0.000366738
0.000783725
0.0013595
0.00261175
0.0062306
0.01534
0.0307235
0.0357225
0.0261832
0.000235286
0.000409053
0.000926611
0.00159765
0.0029403
0.00626474
0.0149699
0.0279739
0.0314917
0.0231659
0.000269844
0.000438765
0.00105149
0.00178278
0.00306045
0.00601075
0.0137384
0.0239979
0.0272558
0.0216303
0.00034977
0.00044859
0.00117105
0.00195125
0.00307437
0.00541767
0.0113821
0.020267
0.0240918
0.021368
0.000534318
0.000467626
0.00123979
0.00214744
0.00309623
0.0047877
0.0087641
0.015803
0.0191958
0.0194041
0.000830709
0.000578661
0.0012768
0.00231346
0.00314374
0.00415168
0.00673757
0.0126816
0.0160358
0.0165381
0.00263309
0.000542142
0.00154146
0.0026726
0.00351968
0.00393351
0.00512211
0.00820229
0.0100006
0.0111445
0.00385462
0.000594171
0.000348109
0.000355702
0.000602989
0.00301856
0.0179377
0.0399989
0.0393056
0.0422411
0.000264545
0.000368212
0.000471872
0.000668663
0.00191735
0.00819146
0.0232363
0.0364591
0.0399385
0.0493072
0.000451295
0.000732973
0.000946071
0.00168996
0.00461628
0.0126308
0.0278445
0.0357522
0.0393584
0.0423541
0.00062441
0.00107321
0.00160064
0.00298608
0.0069314
0.0167067
0.0293953
0.033941
0.03466
0.0258592
0.000848185
0.00136963
0.00216967
0.00410698
0.00912051
0.0200973
0.0284009
0.0300288
0.0252062
0.0115544
0.000990044
0.00159554
0.00249322
0.00466242
0.0100209
0.0204587
0.0254837
0.0252567
0.0174927
0.00640038
0.00109268
0.00171548
0.00263108
0.00469612
0.0100555
0.0197524
0.0233004
0.0218518
0.0124458
0.00498704
0.00113305
0.00180851
0.00268084
0.0046101
0.00971508
0.0179277
0.0206708
0.0185731
0.0106439
0.00443914
0.00116849
0.00179511
0.0026678
0.0043753
0.0087693
0.0159886
0.0190503
0.0163663
0.00912201
0.00469677
0.00138792
0.00177513
0.00268131
0.00405407
0.00734723
0.0129604
0.0151124
0.0155319
0.0105202
0.00490309
0.00130138
0.000466965
0.000441897
0.000452295
0.000750766
0.00259931
0.0142076
0.0314858
0.0351676
0.035571
0.000480424
0.000477703
0.000501954
0.000711024
0.00190219
0.00689135
0.0236845
0.032435
0.0362511
0.0412766
0.000552607
0.000653505
0.000768823
0.00150663
0.00470773
0.015532
0.0275591
0.0315492
0.0332759
0.034294
0.000854838
0.00100371
0.00141477
0.00322932
0.00960719
0.0219948
0.0271055
0.028332
0.0252627
0.0188324
0.00110237
0.00128952
0.00209716
0.0051852
0.0139738
0.022449
0.0247231
0.0216661
0.0138686
0.00655943
0.00144555
0.00171638
0.00299285
0.00736455
0.0171309
0.0215603
0.0213223
0.0146394
0.00651025
0.00281381
0.00159213
0.001935
0.00350217
0.00860046
0.0170831
0.0197748
0.0168199
0.00960957
0.00382412
0.00200056
0.00175582
0.00223217
0.00392758
0.00919016
0.0166123
0.0183539
0.0147401
0.00720523
0.00286862
0.00180239
0.00190107
0.00233472
0.00396179
0.00894351
0.0154822
0.0168955
0.0119828
0.00558912
0.00242987
0.00184407
0.00190864
0.00275447
0.00438695
0.00890787
0.0150141
0.016387
0.0132179
0.00758362
0.004393
0.00272992
0.0103095
0.00227155
0.000748185
0.000581546
0.000691934
0.00150115
0.00966816
0.0152058
0.0166013
0.0198464
0.00249898
0.00104686
0.000649063
0.000703714
0.00124859
0.00360915
0.0119264
0.0157004
0.0197104
0.0265941
0.000940432
0.000791095
0.000728941
0.00104001
0.00260402
0.00763987
0.0148905
0.0176624
0.02138
0.0248116
0.000939304
0.000896634
0.000951659
0.0017533
0.0048037
0.0119951
0.0167739
0.0183461
0.019805
0.019161
0.00110619
0.00109309
0.00143551
0.00321925
0.00817211
0.0147401
0.0165806
0.0173499
0.0157959
0.00832973
0.00151169
0.00184415
0.00233867
0.00465734
0.0110212
0.0154042
0.0158622
0.0153938
0.00977349
0.0046463
0.00174541
0.00215194
0.00291135
0.0062452
0.0134152
0.0152906
0.0146539
0.0121354
0.00692016
0.00363069
0.00204132
0.00230267
0.00375877
0.008063
0.0138149
0.0148743
0.0140963
0.0105087
0.00530051
0.00293323
0.00206887
0.00233681
0.00385498
0.00854766
0.0135083
0.0143407
0.0123977
0.00900277
0.00460592
0.00429286
0.00254406
0.00314543
0.00551274
0.0100509
0.0135853
0.0145266
0.0127757
0.0108046
0.00875915
0.00827122
0.00218151
0.00122031
0.00104218
0.00111342
0.00159836
0.00323622
0.0078659
0.00855416
0.0097346
0.00919969
0.00135537
0.00120754
0.00117175
0.00169223
0.00285069
0.00476799
0.00808913
0.00879272
0.0116583
0.0137727
0.00146019
0.00138208
0.00171783
0.00267329
0.00402128
0.00630026
0.00894685
0.00985052
0.0146572
0.0161787
0.00237983
0.00247867
0.00315187
0.00416458
0.00623011
0.00851725
0.0106402
0.0124138
0.0154408
0.0189638
0.00285202
0.00315778
0.00451083
0.00632577
0.00862628
0.0106207
0.0122718
0.0127377
0.0156231
0.0185931
0.00371805
0.0035304
0.00488418
0.0068731
0.00900161
0.0104208
0.0115574
0.0130658
0.0152629
0.0179922
0.00465838
0.0037045
0.004517
0.00684315
0.00935061
0.0106414
0.0114681
0.0125071
0.0142227
0.0168412
0.00596668
0.00451061
0.00481662
0.00665771
0.00895767
0.0101931
0.0108395
0.0108777
0.0120471
0.0153446
0.00577944
0.00481864
0.00497685
0.00665893
0.00870572
0.00932153
0.00932276
0.00939964
0.0100736
0.0167957
0.00754023
0.00562433
0.00554308
0.00708219
0.00881221
0.00917279
0.00876169
0.00906148
0.0111244
0.0254415
0.0136911
0.00805507
0.0058949
0.00599508
0.0072631
0.00893975
0.0091296
0.0108525
0.0107691
0.0113257
0.00712384
0.00509798
0.00554606
0.00636664
0.00744912
0.00877451
0.010057
0.0112894
0.0121429
0.0141475
0.00689385
0.00594781
0.00618918
0.00689716
0.00780572
0.00917816
0.010632
0.0121942
0.0123843
0.0137655
0.00630113
0.00645343
0.00659232
0.00710649
0.00807058
0.00883365
0.0107427
0.0122799
0.0120988
0.0144995
0.00630788
0.00645965
0.00656172
0.00712427
0.0082458
0.00882845
0.00995204
0.011686
0.0123966
0.0156238
0.00660113
0.00648165
0.00648217
0.00688419
0.00774589
0.00871047
0.00950374
0.0112361
0.0120923
0.0143576
0.00657239
0.006453
0.00657356
0.00694186
0.00729418
0.00821747
0.00888494
0.0100861
0.011066
0.0130297
0.00643705
0.00609523
0.00651432
0.00702243
0.00727427
0.0079759
0.00852603
0.00926172
0.00981125
0.0103132
0.00629806
0.00607781
0.00635835
0.00676647
0.0071777
0.00825703
0.00858934
0.00930523
0.00967513
0.0113674
0.00649545
0.00652657
0.00665259
0.00711537
0.00825583
0.0106003
0.010485
0.010811
0.00927299
0.0172662
0.0111743
0.0110345
0.0103208
0.00951091
0.00903339
0.00912405
0.00922311
0.00903798
0.00930693
0.0101419
0.0103876
0.00988558
0.00959831
0.00921706
0.00911794
0.00905557
0.00904665
0.00886867
0.00883604
0.00990155
0.00956963
0.0095165
0.00926792
0.0088495
0.0088037
0.00888799
0.00905843
0.00905746
0.00919671
0.00974651
0.00913859
0.00949669
0.00941877
0.00883686
0.0087745
0.00877063
0.00874047
0.00885392
0.00913001
0.00992765
0.00906883
0.00889704
0.00883919
0.00833973
0.00815633
0.00845066
0.00857524
0.00878549
0.00910634
0.0102966
0.00959687
0.00833025
0.00816135
0.00801915
0.0081206
0.00850226
0.00919067
0.0092657
0.00937047
0.0115025
0.00948565
0.00813333
0.00773996
0.00811057
0.00891155
0.00954005
0.0099579
0.0101573
0.0097643
0.0114374
0.00913763
0.00785771
0.00803334
0.00888099
0.00957763
0.010139
0.0109089
0.0110748
0.0101464
0.0121577
0.00931787
0.00983955
0.00935182
0.00942234
0.00979155
0.0104389
0.0110423
0.0113975
0.0114585
0.0144844
0.0130878
0.0132447
0.0111511
0.0105033
0.010087
0.0106583
0.0118141
0.0121731
0.011457
0.00991835
0.0123651
0.0117631
0.0108915
0.0102179
0.00937752
0.0081429
0.00660696
0.00618664
0.00627745
0.0118082
0.0132786
0.0121155
0.0103311
0.00927565
0.00857272
0.00800495
0.0073736
0.0063477
0.0054563
0.00952138
0.0129908
0.0116966
0.00958977
0.00854458
0.00786895
0.00762991
0.0071099
0.00642722
0.00579958
0.00803864
0.0135006
0.0110631
0.00893844
0.00798359
0.00746532
0.00697377
0.00665888
0.00633068
0.00716271
0.00789209
0.0152772
0.0104461
0.00845629
0.00772061
0.00706478
0.00663373
0.00697676
0.00811217
0.00639795
0.00634387
0.0162182
0.010181
0.00822568
0.00769424
0.00702621
0.00753019
0.00778562
0.00587322
0.00614034
0.00642004
0.0164256
0.0100499
0.00809013
0.00793519
0.00752923
0.00698606
0.00577685
0.00560544
0.0102434
0.0121532
0.0165896
0.010072
0.00775716
0.00803274
0.00751664
0.00651838
0.00455744
0.00833154
0.0123513
0.015125
0.018081
0.0108453
0.00750986
0.00791086
0.00553379
0.00388394
0.00381123
0.00555164
0.00939185
0.0145993
0.0187944
0.0127986
0.00770974
0.00745227
0.00457762
0.00300333
0.00291309
0.00358235
0.00523939
0.00879818
0.0144238
0.0114228
0.0102628
0.0089625
0.00826218
0.00749205
0.00554414
0.00540633
0.0108521
0.0278886
0.0164089
0.0127399
0.0106961
0.0082821
0.00784472
0.00701478
0.00585751
0.00765205
0.00877875
0.0125035
0.0175292
0.0115066
0.0087609
0.00719673
0.00699425
0.00660607
0.0062429
0.00788238
0.00668168
0.00689993
0.0193825
0.0112582
0.0077999
0.00655581
0.00628565
0.00596727
0.00653728
0.00752026
0.00590618
0.0046349
0.019867
0.0107684
0.00648264
0.00602905
0.00566422
0.00582256
0.00715106
0.00662483
0.0054689
0.00384521
0.0190196
0.0100918
0.00569389
0.00558669
0.00514134
0.00643829
0.00757314
0.00588578
0.0049322
0.00342737
0.016557
0.00887899
0.0051552
0.00455404
0.00496344
0.00660213
0.0067692
0.00505894
0.00365005
0.0025543
0.0154196
0.00847066
0.00409944
0.00370427
0.00443081
0.00539105
0.0060687
0.00421251
0.00296341
0.002275
0.0149434
0.00897247
0.00385633
0.00334698
0.00387017
0.00472406
0.0052403
0.00380288
0.00306429
0.00241779
0.014034
0.0104947
0.00410894
0.00324945
0.00389782
0.00566076
0.00479948
0.00495157
0.0049801
0.00367562
0.0262564
0.0120512
0.0150155
0.0163944
0.0158188
0.0139116
0.010753
0.00804364
0.00956459
0.0203212
0.0158873
0.0107513
0.0142535
0.0160743
0.0156229
0.0138007
0.0102682
0.00764665
0.0062302
0.0127202
0.00804644
0.00910765
0.0136995
0.0162112
0.0161106
0.0142552
0.0103963
0.00776876
0.00587641
0.00533302
0.00647922
0.00897132
0.0137903
0.0162436
0.0162633
0.0143667
0.0103015
0.00730983
0.00560981
0.00463536
0.00707397
0.0105945
0.0146805
0.0167452
0.0164127
0.0143486
0.0101647
0.00667461
0.00498992
0.00472345
0.0100464
0.0148912
0.0165704
0.0174479
0.016371
0.013784
0.00962559
0.00630147
0.00444442
0.00494138
0.0139198
0.0199153
0.0200965
0.0181387
0.0154731
0.0124263
0.0089221
0.00543358
0.00419129
0.00517748
0.0205027
0.0242362
0.0230986
0.0178026
0.0127235
0.00982681
0.00747784
0.00479993
0.00375729
0.00463053
0.0268005
0.0275486
0.024351
0.0158287
0.00898116
0.00637122
0.005472
0.00420909
0.00353541
0.00345664
0.0299913
0.030024
0.0245522
0.013343
0.00596932
0.00349454
0.00329479
0.00296332
0.00284969
0.00488265
0.0536956
0.0134886
0.00662877
0.00703406
0.00746179
0.00787991
0.0083971
0.00843939
0.00804948
0.00705043
0.0118063
0.0081287
0.00986907
0.00982715
0.0087865
0.00775804
0.0077905
0.00828126
0.00677668
0.00651249
0.00514791
0.00923957
0.0114378
0.0127145
0.0125835
0.0109142
0.0087293
0.00868123
0.00714282
0.00629679
0.00634589
0.00948305
0.0120316
0.0140465
0.014213
0.0137058
0.0118521
0.00841105
0.00838902
0.00652466
0.00682746
0.0107173
0.0130976
0.0152499
0.0157991
0.0148637
0.0135194
0.00933951
0.00849243
0.00681103
0.00952173
0.0114213
0.0138398
0.0156925
0.0163647
0.0157263
0.0142884
0.0110795
0.00870549
0.00674107
0.0118601
0.0132108
0.0144597
0.0160631
0.0166335
0.0160028
0.0147713
0.0119527
0.00876725
0.00654306
0.0134577
0.0138468
0.0149292
0.0162668
0.0162798
0.0154539
0.0144256
0.0123601
0.00905414
0.00613626
0.0137822
0.0158408
0.0177378
0.0175659
0.0164375
0.0142283
0.0134652
0.0121813
0.00898463
0.0104609
0.0140165
0.017719
0.0181527
0.0167291
0.0137648
0.0107639
0.0107672
0.00991078
0.0130258
0.0494683
0.00850102
0.00823811
0.00428341
0.00352
0.00298499
0.00314728
0.00465097
0.00936923
0.0217496
0.0402392
0.0043143
0.00386212
0.00392802
0.0048693
0.00680755
0.0108931
0.0173299
0.0338474
0.0482401
0.0552481
0.0030242
0.00405139
0.00599949
0.00909057
0.0128461
0.0202229
0.0293337
0.0383132
0.042139
0.0405324
0.00367616
0.00526487
0.00828093
0.011879
0.0169827
0.0225025
0.0285588
0.0314212
0.0275778
0.0225248
0.0054836
0.00708874
0.00888782
0.0124495
0.0167092
0.0205447
0.0223864
0.0208869
0.0170959
0.0110063
0.00594799
0.00752352
0.00957995
0.0116185
0.0143111
0.0152944
0.0155283
0.0142217
0.0106133
0.00821303
0.0059257
0.0072263
0.009683
0.0113222
0.0112603
0.0112321
0.0110702
0.0101469
0.0077803
0.0089744
0.00630414
0.00682836
0.00818728
0.0108736
0.0114078
0.0105781
0.00976506
0.00856018
0.00620717
0.00729477
0.00949613
0.00760628
0.00761971
0.00890768
0.0106093
0.0105738
0.01004
0.00888977
0.00588247
0.0110591
0.014544
0.0106379
0.00875071
0.0092076
0.0102397
0.0102143
0.00970993
0.00896041
0.0060523
0.00758689
0.062913
0.0593297
0.0502005
0.0359369
0.0287802
0.0306863
0.0301311
0.0356875
0.0289616
0.0277621
0.0675305
0.0598732
0.0530766
0.0465938
0.0414964
0.0428421
0.028962
0.0241784
0.02301
0.0482983
0.0670364
0.0631619
0.0581578
0.0543521
0.0502157
0.0452081
0.0290235
0.0224355
0.0336928
0.0647219
0.0653944
0.0726627
0.0693835
0.0630998
0.0582417
0.0487693
0.0298714
0.0246739
0.0326035
0.0535448
0.0450857
0.0704545
0.0742949
0.0707757
0.0624486
0.0499309
0.0337108
0.0287098
0.0332966
0.0433707
0.0261017
0.0533297
0.0728418
0.07632
0.0710746
0.0529717
0.0390652
0.0271228
0.0321104
0.0406552
0.0268942
0.0443549
0.0702896
0.0800678
0.0817781
0.0602184
0.0438725
0.0266692
0.0288873
0.0297028
0.058024
0.0745298
0.0749845
0.0703565
0.0837499
0.0735944
0.0457253
0.0296611
0.0295165
0.0290135
0.0379055
0.046807
0.0468309
0.0443966
0.0582766
0.0637269
0.049461
0.0253033
0.023238
0.0235229
0.0532988
0.0647399
0.0518206
0.058096
0.0532812
0.0527124
0.0477381
0.0367149
0.0279117
0.02268
0.0369029
0.0372008
0.0437296
0.0650429
0.0916313
0.102755
0.114008
0.141108
0.170096
0.141494
0.0397534
0.0503223
0.0383021
0.057672
0.0924457
0.107766
0.101925
0.100188
0.0734585
0.0511467
0.043436
0.0724482
0.0316846
0.0286152
0.0444568
0.0893887
0.0750454
0.0787492
0.0554614
0.0466039
0.0220561
0.0714734
0.0604787
0.0252169
0.0206853
0.0434786
0.0740888
0.0742811
0.0590325
0.0598222
0.0199238
0.0206654
0.034586
0.0493538
0.037111
0.0431066
0.0810285
0.0766172
0.0728256
0.0660869
0.0258386
0.012708
0.0232274
0.0233273
0.061586
0.0877206
0.0807436
0.0872991
0.083615
0.0659616
0.0287064
0.0104144
0.0368218
0.0500693
0.0353786
0.040475
0.0490582
0.0824388
0.0803397
0.0639725
0.0325336
0.0257123
0.0464447
0.0518341
0.0500699
0.0364535
0.0494163
0.0835004
0.0686704
0.057011
0.0628579
0.0595011
0.0590776
0.0665974
0.0730196
0.0632914
0.0716615
0.0883537
0.160767
0.132227
0.0564451
0.0560889
0.0528359
0.0510872
0.0744293
0.0995818
0.0660437
0.134469
0.193893
0.0596476
0.0358285
0.0368579
0.0374114
0.0267403
0.0258216
0.0266423
0.0329862
0.0371131
0.0384189
0.0230018
0.0334931
0.0352076
0.0373762
0.0327563
0.0259671
0.0261128
0.0302103
0.0237117
0.0317178
0.0180496
0.0229281
0.0237755
0.0255467
0.023202
0.0309234
0.0140678
0.0121507
0.0125496
0.0148809
0.0158559
0.0218874
0.0211192
0.0210025
0.0198809
0.0202574
0.0248729
0.0228664
0.0141282
0.0187332
0.0208683
0.038479
0.0314108
0.0255295
0.0220918
0.0204078
0.0226149
0.0368554
0.0251496
0.0170234
0.0235702
0.0446864
0.0436887
0.0428759
0.040623
0.0333436
0.024976
0.0281216
0.0314092
0.0302858
0.0360286
0.0572692
0.0484853
0.0448224
0.0444072
0.0443158
0.0388237
0.031164
0.0319311
0.0327327
0.0438538
0.0372842
0.0404482
0.0433771
0.0439793
0.0449016
0.0418353
0.0365653
0.0363399
0.0406381
0.0447692
0.0334851
0.0464253
0.0452858
0.0461841
0.0471644
0.0427251
0.0391636
0.0435574
0.0441835
0.0583255
0.0297642
0.0443789
0.0433311
0.0442164
0.0483516
0.052842
0.0474495
0.0407504
0.0469497
0.0519646
0.0194779
0.0161487
0.0331425
0.0383783
0.0427551
0.0231632
0.00713083
0.00518889
0.00419973
0.0119225
0.025339
0.0133883
0.0195602
0.0221647
0.0215265
0.00675958
0.00387251
0.00283767
0.00336355
0.0396292
0.0790798
0.0361806
0.0217072
0.0115971
0.00949229
0.00449946
0.0016788
0.00113418
0.00244031
0.0608706
0.0710746
0.0762095
0.0766992
0.0684362
0.0544578
0.0212851
0.00273159
0.00102922
0.00242771
0.0431647
0.0161801
0.0247277
0.0557487
0.0754965
0.0768272
0.0679116
0.0166459
0.00461703
0.00177921
0.0102868
0.0581751
0.0633975
0.0614151
0.0689047
0.0757666
0.0760709
0.0674431
0.0262576
0.00750803
0.00175127
0.0519748
0.0629977
0.0791167
0.0772293
0.0753041
0.0743234
0.0760832
0.0704687
0.0218015
0.00465561
0.0386487
0.0377034
0.0466386
0.0604933
0.0709446
0.0718307
0.0803072
0.073343
0.0208282
0.00475311
0.0651382
0.0544829
0.0485089
0.0573472
0.0661316
0.0731524
0.100078
0.0444732
0.0064073
0.00720882
0.0545042
0.0910161
0.0643236
0.071065
0.0848287
0.107896
0.0416032
0.00656842
0.0120223
0.0239331
0.0127496
0.0207648
0.0562514
0.00857106
0.00212666
0.00342021
0.0109608
0.0172615
0.0236466
0.00711886
0.0385445
0.0325067
0.0263903
0.00108678
0.000610839
0.00176024
0.00736047
0.0201158
0.0243017
0.00138937
0.0128618
0.00847828
0.00178745
0.000200032
0.00021324
0.000591036
0.00254736
0.00692217
0.00867116
0.00079374
0.0020123
0.000634569
0.00018592
0.000122088
0.000122556
0.000125872
0.000122115
0.00010835
9.68683e-05
8.84473e-05
0.00220949
0.000207408
0.000117793
0.000116521
0.000128769
0.000133921
0.000131343
0.000120797
9.80281e-05
8.23276e-05
0.0224696
0.000356034
0.000116724
0.000112798
0.000122224
0.000128245
0.000126729
0.000117867
9.86142e-05
8.46858e-05
0.00945314
0.0010458
0.000123671
0.000113091
0.000125032
0.000136559
0.000137451
0.000126933
0.000106671
9.86518e-05
0.00694014
0.00107711
0.000153191
0.000124273
0.00016886
0.000212989
0.000209728
0.000154761
0.000152639
0.000207109
0.00303891
0.000908573
0.00016515
0.000128632
0.000175962
0.000257641
0.000273023
0.000250497
0.000300956
0.000972204
0.0010931
0.000521376
0.000161554
0.000123868
0.000154894
0.000228946
0.000250918
0.000238371
0.000300422
0.00179991
0.00276277
0.00266512
0.00397763
0.00317337
0.0020583
0.00239186
0.00266216
0.00168141
0.00122007
0.00123418
0.00174678
0.00184022
0.00210546
0.00308994
0.00309473
0.0028062
0.00291254
0.00482848
0.0024962
0.00143326
0.00153154
0.00156704
0.00154615
0.0016503
0.00175745
0.00215299
0.00273859
0.00404712
0.00495628
0.00252304
0.00153592
0.00162259
0.00160579
0.00151521
0.00140467
0.00141777
0.00159696
0.00300919
0.00314105
0.00432985
0.00153089
0.00171672
0.00175538
0.0016838
0.00149447
0.00134596
0.00134171
0.0015474
0.00280182
0.00619289
0.00158252
0.00189141
0.00202901
0.00197223
0.0017324
0.00142925
0.00130192
0.0013114
0.00187477
0.00410777
0.00175794
0.00220553
0.00229636
0.00259511
0.00258714
0.0020162
0.00144258
0.00131802
0.00141288
0.00215752
0.00212653
0.00239869
0.00253332
0.00248353
0.00231731
0.00190304
0.0015697
0.00148967
0.00144655
0.00158293
0.00210601
0.0024433
0.00261021
0.00244199
0.00204409
0.00172518
0.00152173
0.00154907
0.00153673
0.00155387
0.00227659
0.00296314
0.00295843
0.00251749
0.00192085
0.00156934
0.00138559
0.00137498
0.0013816
0.00171209
0.00310551
0.00224022
0.00271641
0.00207489
0.00171089
0.0017173
0.00194544
0.00186791
0.00132316
0.00119507
0.00136346
0.0013846
0.00150933
0.00274506
0.00384635
0.00254241
0.00197624
0.00229451
0.00227496
0.00156453
0.001217
0.00124962
0.00125148
0.00136662
0.00161072
0.00188676
0.00209663
0.00230209
0.00239203
0.00411415
0.00115766
0.00122043
0.00123736
0.00123026
0.0012076
0.00122191
0.0013314
0.00166123
0.0018065
0.00450777
0.00112471
0.00119155
0.00124437
0.00125135
0.00123108
0.0011728
0.00116373
0.00120353
0.00138292
0.00393363
0.00113652
0.00121429
0.00129682
0.00131626
0.00129807
0.00123116
0.00116914
0.00115602
0.00121654
0.00175655
0.00120804
0.00133667
0.00143972
0.00149526
0.00148784
0.00140917
0.00125794
0.00118265
0.00118465
0.00130666
0.00136851
0.00153724
0.00163883
0.00164133
0.0016109
0.00150829
0.00136743
0.00125855
0.00121358
0.00122934
0.00149263
0.0017342
0.00184924
0.0018588
0.00177731
0.00156212
0.00138335
0.00128567
0.00125733
0.00125402
0.00161985
0.00232003
0.00248096
0.002322
0.00189703
0.00155422
0.00135602
0.001258
0.00121954
0.00128579
0.00325651
0.00238963
0.00276153
0.00173396
0.00162909
0.00157033
0.00156267
0.00155112
0.0012642
0.00115123
0.00125966
0.00123837
0.00125749
0.00383928
0.00399724
0.00257234
0.00175607
0.00158629
0.00146411
0.00176605
0.00105331
0.00106857
0.00107584
0.0013557
0.00157911
0.00245471
0.00266765
0.00179572
0.00152862
0.00318836
0.000976855
0.00102776
0.00104295
0.00105794
0.00107362
0.00115112
0.00127112
0.00129505
0.00133065
0.00268663
0.000934711
0.000982269
0.00104448
0.00105755
0.0010634
0.00106179
0.00105681
0.00106637
0.00109988
0.00147146
0.000940529
0.000966605
0.00103251
0.00109084
0.00110969
0.001106
0.00108786
0.00107614
0.00108304
0.0011668
0.000983973
0.00102143
0.00109083
0.00115123
0.00118974
0.0011908
0.00117543
0.00113505
0.00111228
0.0011245
0.00107778
0.00114777
0.00123716
0.00128283
0.00129408
0.00128442
0.00125354
0.00119088
0.00115298
0.00113979
0.00121279
0.00130711
0.00145605
0.00146436
0.00144509
0.00138442
0.00129716
0.00122447
0.00117902
0.00116591
0.00134231
0.00152684
0.00194871
0.00188208
0.00170595
0.00147039
0.00130715
0.00121493
0.00115766
0.00115401
0.00267762
0.00282656
0.00301727
0.00184722
0.00174427
0.00132388
0.00119711
0.00122874
0.00184641
0.0014089
0.00116776