/*--------------------------------*- C++ -*----------------------------------*\
  =========                 |
  \\      /  F ield         | OpenFOAM: The Open Source CFD Toolbox
   \\    /   O peration     | Website:  https://openfoam.org
    \\  /    A nd           | Version:  9
     \\/     M anipulation  |
\*---------------------------------------------------------------------------*/
FoamFile
{
    format      ascii;
    class       volScalarField;
    location    "79";
    object      f3.gas;
}
// * * * * * * * * * * * * * * * * * * * * * * * * * * * * * * * * * * * * * //

dimensions      [0 0 0 0 0 0 0];

internalField   nonuniform List<scalar> 
137980
(
0.00104339
0.00110818
0.00126265
0.00152401
0.00182203
0.00198716
0.00202446
0.00203608
0.0020733
0.00210157
0.000995808
0.00104499
0.00115721
0.0013749
0.00170824
0.00197449
0.0020306
0.00203165
0.00203807
0.00205887
0.000981405
0.00101106
0.00108081
0.00122428
0.00145694
0.0018125
0.00202208
0.00203648
0.00197854
0.00190313
0.000921975
0.000940138
0.000980977
0.00108416
0.001246
0.00146446
0.00173912
0.00193315
0.00194971
0.00181726
0.000861983
0.000874151
0.000900653
0.000965359
0.00106751
0.00121722
0.0013816
0.00156018
0.00166908
0.0016583
0.000803626
0.000808666
0.000822371
0.0008614
0.000926066
0.00101964
0.00112928
0.00123801
0.00131264
0.00134384
0.000771855
0.000768875
0.000773366
0.000788982
0.000829206
0.000886483
0.000962652
0.00104333
0.00109858
0.00113327
0.000761098
0.00075322
0.000754427
0.000757888
0.000779499
0.00082221
0.000874271
0.000928306
0.000958923
0.000992901
0.000763474
0.000751428
0.000749977
0.000751578
0.000758781
0.000791237
0.000844721
0.000882824
0.000895088
0.000913151
0.000790767
0.000766511
0.000763172
0.000762932
0.000764868
0.000781072
0.000824409
0.000859423
0.000877142
0.00089919
0.000955835
0.00104663
0.00120538
0.00144869
0.00174073
0.00192758
0.00199922
0.00204464
0.00212495
0.00222285
0.000921075
0.000986369
0.00110403
0.00133582
0.00170431
0.00194762
0.00201552
0.0020417
0.00209968
0.00217493
0.000897269
0.000957826
0.00104741
0.00121119
0.00148714
0.00187856
0.00202546
0.00204115
0.00203873
0.00207214
0.000853947
0.000888191
0.000942587
0.00106985
0.0012673
0.00154437
0.00188186
0.00199087
0.00199453
0.00189063
0.000800423
0.000822692
0.000866258
0.000946518
0.00107989
0.00125724
0.00148877
0.00174039
0.00183328
0.00179016
0.000754157
0.000764535
0.000789569
0.00083819
0.000929512
0.0010403
0.00118191
0.00133542
0.00144939
0.00149565
0.000728285
0.00072672
0.000738604
0.000764457
0.000813285
0.000894195
0.000980552
0.00107739
0.00115083
0.00120648
0.000722948
0.000711516
0.000714218
0.000731917
0.000748074
0.000795591
0.000861229
0.000926684
0.000969338
0.00101422
0.000734264
0.000713259
0.000709074
0.00071723
0.000734921
0.000752074
0.00078698
0.000827177
0.000849883
0.000885229
0.000765908
0.000733016
0.000719346
0.00072076
0.000733718
0.00075645
0.000778965
0.000792308
0.000803602
0.000831748
0.000881088
0.000985581
0.00114647
0.0013872
0.00169575
0.00192893
0.00204013
0.00209642
0.00225423
0.00276743
0.000894305
0.000964386
0.00108682
0.00133922
0.0017123
0.00197389
0.00209839
0.00228634
0.00251097
0.00282758
0.000834985
0.000916426
0.00104135
0.00123653
0.00157249
0.00195807
0.00211426
0.00225689
0.00253779
0.00279766
0.000800186
0.00084509
0.000934522
0.00109636
0.00135515
0.00173305
0.0020536
0.00219071
0.00237192
0.00248453
0.000753519
0.000783798
0.000852861
0.000966204
0.0011428
0.0014062
0.00177245
0.00204276
0.0021563
0.00216937
0.000719337
0.000731152
0.000768127
0.000849488
0.000966108
0.0011377
0.00137284
0.00165053
0.00181822
0.00188444
0.000698454
0.000697231
0.000711475
0.000757821
0.000831936
0.000943991
0.00108349
0.00125249
0.0013924
0.00149888
0.000691834
0.000682217
0.000685453
0.000697437
0.000750076
0.000813621
0.000900238
0.000994444
0.00107269
0.00115808
0.000690579
0.000680708
0.000678125
0.000679396
0.000696487
0.000745245
0.00079643
0.000846646
0.000879118
0.000925054
0.000706604
0.000688467
0.000684979
0.00068704
0.00069007
0.000706829
0.00074333
0.000781398
0.000802874
0.000830879
0.000860905
0.000957021
0.00108841
0.00130101
0.00160943
0.00189701
0.00202952
0.00195675
0.00215039
0.00243856
0.000889205
0.000953178
0.00106971
0.00132026
0.00168663
0.00203876
0.00219669
0.0022462
0.00237899
0.00273009
0.000815723
0.000904895
0.00104661
0.00127624
0.00163861
0.00208629
0.00234532
0.00254324
0.0027915
0.00299054
0.000783928
0.000837351
0.000947619
0.00115632
0.001498
0.00201006
0.0024467
0.00268677
0.00302872
0.00317898
0.000729111
0.00077502
0.000867157
0.00102721
0.00129963
0.00176525
0.0023536
0.00268034
0.00300493
0.00318214
0.000685311
0.000709744
0.000777436
0.000896075
0.00109046
0.00142283
0.00197009
0.00251887
0.00287356
0.00308868
0.000654694
0.000663509
0.000703283
0.000783846
0.00091853
0.00113214
0.00146312
0.00194609
0.00246473
0.00276553
0.000634688
0.000636582
0.000652318
0.000708134
0.000791731
0.000925375
0.00111512
0.00136011
0.00162543
0.00193628
0.000624988
0.000622938
0.000630663
0.00065947
0.000713883
0.000796782
0.000906924
0.00102139
0.00110745
0.00123567
0.000649875
0.000624963
0.000629067
0.000637197
0.000674051
0.000728224
0.000800373
0.000865563
0.000894585
0.000885954
0.000852306
0.000940775
0.00105605
0.00121295
0.00145099
0.00179692
0.00198393
0.0020123
0.00230124
0.00214978
0.000875006
0.000943191
0.00105301
0.00127828
0.00163387
0.00200517
0.00221303
0.00228659
0.00252878
0.00245503
0.000774205
0.000892206
0.00105223
0.0013213
0.00174189
0.00223074
0.00246535
0.00265595
0.0028916
0.00287218
0.000738178
0.000816884
0.000985966
0.00128911
0.00178041
0.00236363
0.00273822
0.0029328
0.00324145
0.00332303
0.00067454
0.000761666
0.000907662
0.0011747
0.00166319
0.00234942
0.00293748
0.00324774
0.00345065
0.00352545
0.000632148
0.000689552
0.000806488
0.00101626
0.00142451
0.00211998
0.00289991
0.00343568
0.00372448
0.00379811
0.000609622
0.000637105
0.000721383
0.000872622
0.00116308
0.00168831
0.00257092
0.00338793
0.00385584
0.00415679
0.000601045
0.000604124
0.000659561
0.00076577
0.000965278
0.00133898
0.00196976
0.00293129
0.00359506
0.00398807
0.000617304
0.000595358
0.000614692
0.000687003
0.000824875
0.00106077
0.00143142
0.00193623
0.00248642
0.00280233
0.000652224
0.000612123
0.000604002
0.00064177
0.000725128
0.000901415
0.00116576
0.00138806
0.00135564
0.00120333
0.000866057
0.000936817
0.00101028
0.00111126
0.00127585
0.00157576
0.00205281
0.00232928
0.00206207
0.00214557
0.000836793
0.000909321
0.00102167
0.0012213
0.00155055
0.00202283
0.00235603
0.00260531
0.00253849
0.00243162
0.00072208
0.000865253
0.00105719
0.00134
0.00180295
0.00236238
0.00274031
0.00298576
0.00305605
0.00284891
0.000683769
0.000802551
0.00101473
0.00136105
0.00192058
0.00262379
0.00314285
0.00352306
0.00369361
0.00346897
0.00065532
0.000765393
0.000952409
0.00130271
0.00193021
0.00278301
0.00351374
0.00394926
0.00412686
0.0038724
0.000634722
0.000697216
0.000868129
0.00120766
0.00185336
0.00284345
0.00389717
0.00446959
0.00464348
0.00438623
0.000626787
0.000650453
0.000782938
0.00109571
0.00173441
0.00284325
0.00418044
0.0047219
0.00489461
0.00471417
0.0006596
0.000628822
0.000704996
0.000963831
0.00153791
0.00264615
0.00423595
0.00529819
0.00560512
0.00562118
0.000721461
0.000656256
0.000654305
0.000829611
0.00128107
0.00218047
0.00380526
0.00515435
0.00580684
0.00661093
0.000749097
0.00067416
0.000644379
0.000734545
0.00105267
0.001804
0.00299348
0.00418633
0.0041709
0.00369266
0.000922104
0.000935879
0.000968624
0.00105286
0.00120105
0.00163808
0.00289584
0.00254134
0.00201494
0.0041144
0.000808476
0.000908688
0.00104286
0.00126116
0.00165388
0.00261288
0.00344811
0.00287116
0.00230394
0.00409073
0.000733969
0.000895699
0.00113043
0.00150579
0.00220075
0.00349824
0.00393673
0.00334788
0.00265114
0.0041026
0.000705882
0.000860686
0.00116738
0.00171814
0.00277405
0.00412479
0.00444631
0.00393761
0.00316394
0.00416791
0.000700224
0.000851854
0.00119811
0.0019081
0.00339212
0.00469368
0.00497728
0.00453748
0.00369161
0.00431645
0.000711794
0.000822186
0.0012159
0.00213426
0.00403843
0.00524344
0.00552709
0.0051432
0.00448146
0.00465732
0.00075807
0.000806302
0.00121741
0.00237049
0.00474722
0.00586727
0.00613995
0.00583966
0.00525137
0.00511197
0.00087427
0.000803616
0.00117268
0.0025037
0.00525334
0.00651259
0.00686398
0.00679075
0.00610304
0.0058325
0.000984892
0.000889124
0.00112519
0.00251097
0.0055254
0.00688419
0.00739863
0.0074747
0.00695622
0.00683431
0.00105261
0.000923435
0.00114647
0.00241376
0.00549674
0.00740273
0.00884119
0.00946574
0.00960077
0.00926483
0.00100126
0.00096592
0.00100764
0.00110778
0.00127513
0.00219134
0.00201881
0.00188079
0.00451271
0.019986
0.000863232
0.00101995
0.00132275
0.00189364
0.00248638
0.00277716
0.00258387
0.00280314
0.00832026
0.0207812
0.000899004
0.00125471
0.00207791
0.00294628
0.0032865
0.00334499
0.00322212
0.00418783
0.0122764
0.0203261
0.000938528
0.00146236
0.0027654
0.00366379
0.00395594
0.00396993
0.00397996
0.00568474
0.0147064
0.0189081
0.00101842
0.00165609
0.00328697
0.00425376
0.00453784
0.00457528
0.00465446
0.00690724
0.0153718
0.0186
0.00111523
0.00178903
0.00364878
0.00476421
0.00512072
0.00524684
0.00534956
0.00741692
0.0151853
0.0181447
0.00121967
0.00184624
0.0039757
0.00528581
0.00568226
0.00580303
0.00578655
0.00740838
0.0144891
0.0174675
0.00137506
0.00178919
0.00403728
0.00569398
0.00624136
0.00645409
0.00642125
0.00742807
0.0132558
0.0160056
0.0015623
0.00181652
0.00408995
0.00612979
0.00681894
0.0070225
0.00691636
0.00754614
0.011734
0.0151242
0.00210637
0.00205897
0.00439431
0.00647055
0.00721391
0.00757735
0.00770029
0.00787919
0.00991171
0.0131622
0.00108811
0.00109364
0.0011448
0.00118458
0.00134078
0.00171429
0.00196237
0.00503192
0.0242397
0.0264738
0.00109602
0.0014131
0.00158903
0.00168424
0.00201612
0.00236883
0.00369863
0.013644
0.0227594
0.0161634
0.00163918
0.00223872
0.00248953
0.00262564
0.00292654
0.00372593
0.00805291
0.016969
0.0179209
0.00805293
0.0020849
0.00295266
0.00325969
0.00339912
0.00389798
0.00601964
0.0133633
0.0163988
0.011715
0.00521372
0.00262666
0.0036017
0.0040122
0.00431105
0.00531669
0.00909014
0.0144293
0.0150599
0.00774721
0.00414993
0.00302596
0.00417784
0.00467884
0.00517928
0.00678832
0.0111996
0.0143005
0.013223
0.00628749
0.00403062
0.00332768
0.00456713
0.00515881
0.00596011
0.00781021
0.0121404
0.0140035
0.0121244
0.00596279
0.00418503
0.00352965
0.00492131
0.00572379
0.00662482
0.00863213
0.0123956
0.0136195
0.0115453
0.00611122
0.00464809
0.00358174
0.00497855
0.00595015
0.00706366
0.00901899
0.0123545
0.0134916
0.011636
0.00644963
0.00508209
0.00376149
0.00515253
0.0064034
0.00755567
0.009275
0.0121558
0.0132523
0.0121843
0.00744208
0.00600202
0.00149349
0.00146978
0.00144057
0.00146838
0.00182657
0.00299612
0.00976121
0.0228004
0.022419
0.0206311
0.00157007
0.00170459
0.00171133
0.00193593
0.00295426
0.00674317
0.0186641
0.0220779
0.0187301
0.0145543
0.00194883
0.00220195
0.00228759
0.00285023
0.00536506
0.0147662
0.0192652
0.0190158
0.0110922
0.00814598
0.0026971
0.00296854
0.00328389
0.00476955
0.0103447
0.0173447
0.0182835
0.0127662
0.00709766
0.0051142
0.00325853
0.00360354
0.0043767
0.0071572
0.0143744
0.0171742
0.0160361
0.00832019
0.0051918
0.00397837
0.0040407
0.00455686
0.00588076
0.00983684
0.0155744
0.0165855
0.0124248
0.00621652
0.00423191
0.00347275
0.004463
0.00512431
0.00686911
0.011594
0.0156391
0.0158168
0.010381
0.00523714
0.00376709
0.00330015
0.00501128
0.00591052
0.0079877
0.0127915
0.0155526
0.014931
0.00869984
0.00471523
0.0035762
0.00330314
0.00525956
0.00611139
0.00821952
0.012943
0.0153195
0.014714
0.00870629
0.00473731
0.00355766
0.00331887
0.00548033
0.00656322
0.00882643
0.0132105
0.0152133
0.0148915
0.00956649
0.0050463
0.00360839
0.00341704
0.00206107
0.00197804
0.00185181
0.00197655
0.00250262
0.00414781
0.0136795
0.0163868
0.0150793
0.0161411
0.00198616
0.00204039
0.0020258
0.00237229
0.00356509
0.00763381
0.0165864
0.0176954
0.0171597
0.0176514
0.00214151
0.00227943
0.00240167
0.00316067
0.0056975
0.0139075
0.0176625
0.0176871
0.0168741
0.0165686
0.00272532
0.00290682
0.00320108
0.0046304
0.0100846
0.0167917
0.018023
0.0172549
0.0154982
0.0123894
0.00332285
0.00343984
0.00415726
0.00732842
0.014625
0.0177068
0.0178913
0.0161287
0.012499
0.00876184
0.00428207
0.00458496
0.00609193
0.0105879
0.0166512
0.0179348
0.0172142
0.0138001
0.00964835
0.00671547
0.00484174
0.00517126
0.00738599
0.0137895
0.01749
0.0179176
0.0165051
0.0120918
0.00810238
0.00586097
0.00536207
0.00629315
0.00941795
0.0156315
0.0177676
0.0178267
0.0152373
0.0107811
0.00724172
0.00523842
0.00573888
0.0065898
0.0101603
0.0163478
0.0180119
0.0178911
0.0150987
0.0104805
0.00670383
0.00509799
0.00598174
0.00732388
0.0113571
0.0170558
0.0181872
0.0180414
0.0158112
0.011109
0.00673477
0.00473741
0.00269807
0.00274923
0.00282677
0.00326641
0.00376258
0.00574112
0.00877316
0.00783708
0.0080043
0.00855508
0.00291652
0.00302283
0.00324846
0.00389934
0.00475106
0.00699099
0.00928741
0.008566
0.00847074
0.00872202
0.00364707
0.0035821
0.00398532
0.00489135
0.00636327
0.0088979
0.0100335
0.00898588
0.00880693
0.0091206
0.00510375
0.0048557
0.0053239
0.00655774
0.00898903
0.0102362
0.0104663
0.00920974
0.00922826
0.00975669
0.00726955
0.00658707
0.00725512
0.00917949
0.0108075
0.0112517
0.0104681
0.00946766
0.00960339
0.0103479
0.00915299
0.00868801
0.00955964
0.0111267
0.0121279
0.011689
0.0105782
0.0100029
0.0104365
0.0113236
0.0101158
0.0096325
0.0106163
0.0125238
0.0133063
0.0123326
0.0109518
0.0107356
0.0111122
0.0132364
0.0117488
0.0113
0.0121985
0.0143644
0.0145869
0.0132944
0.0119281
0.0118528
0.0126526
0.0137639
0.011911
0.0117919
0.0126261
0.0152196
0.0160452
0.01532
0.0132331
0.0130106
0.0133803
0.014906
0.0122844
0.0126368
0.0135568
0.0160438
0.0173619
0.0172741
0.0163904
0.0145146
0.0151072
0.0146513
0.0095257
0.0115237
0.0120997
0.0129338
0.0133183
0.0132328
0.0102615
0.00880968
0.00880623
0.00887376
0.0106951
0.0106977
0.0115669
0.0128301
0.0138699
0.0147434
0.0147858
0.0126958
0.0114764
0.0108372
0.0109694
0.010892
0.0114191
0.012553
0.0135218
0.0146196
0.016221
0.0162246
0.015095
0.0128363
0.0112008
0.0109637
0.0112088
0.0123603
0.0132223
0.0140445
0.0153859
0.0173798
0.0172106
0.0158604
0.0102394
0.0099808
0.0103688
0.0116101
0.0128752
0.0138785
0.0146206
0.0167939
0.0181332
0.0168848
0.00906603
0.00938186
0.010126
0.0114829
0.0125267
0.0133795
0.014146
0.0160594
0.0185499
0.0163869
0.00864322
0.00921178
0.0101159
0.0114916
0.0123962
0.0132148
0.0138548
0.0151607
0.0186092
0.0165373
0.0084406
0.00932174
0.0103578
0.011645
0.0123192
0.0133509
0.0138957
0.0149431
0.0184915
0.0169216
0.00841716
0.00972682
0.0107776
0.0119495
0.0128072
0.0147038
0.0149116
0.0153553
0.0181595
0.0178373
0.00926493
0.0107162
0.0118174
0.0129021
0.0153986
0.0186836
0.0185376
0.0172991
0.0186331
0.017176
0.00950894
0.00942886
0.00903907
0.00893412
0.00892701
0.0090761
0.00944694
0.00968646
0.00972945
0.00987714
0.00838729
0.00790546
0.0077208
0.00776258
0.007956
0.00837348
0.00884824
0.00922809
0.00941991
0.00987961
0.00770313
0.00721153
0.00707253
0.00718968
0.00758123
0.00808731
0.00859278
0.00907303
0.00931928
0.00988636
0.00653283
0.00632083
0.00644982
0.00692618
0.00748682
0.00802582
0.00852808
0.00903606
0.00930655
0.00991224
0.00583106
0.00596377
0.00628512
0.00696892
0.00762767
0.00842201
0.00898963
0.00930389
0.00946955
0.0100147
0.00554046
0.00587918
0.00643183
0.00760087
0.0087213
0.00987072
0.0104819
0.0104428
0.0102278
0.0107195
0.00550261
0.00624418
0.00741652
0.00931319
0.0111621
0.012309
0.012325
0.0120764
0.011118
0.0112568
0.00631457
0.00755536
0.00961464
0.0125774
0.0136215
0.0135406
0.0131632
0.0127832
0.0118266
0.0115809
0.00766941
0.00928914
0.0127244
0.0146468
0.0144372
0.013957
0.0132133
0.0126158
0.0116425
0.0121065
0.00822494
0.0106926
0.0144878
0.0154817
0.0146201
0.0139529
0.0129761
0.012038
0.0113985
0.0105326
0.00791662
0.00841785
0.00867906
0.00866237
0.00861762
0.00853284
0.00843468
0.00832646
0.00799967
0.00601425
0.00781281
0.0083316
0.00861589
0.00860112
0.00853018
0.00834277
0.00821308
0.00805337
0.00756931
0.00638142
0.00781599
0.00842316
0.00870909
0.00867623
0.00855446
0.00829411
0.0080749
0.00773725
0.00674322
0.00585322
0.00797293
0.00862428
0.00889563
0.00885275
0.00867875
0.00830747
0.00783854
0.00692893
0.00541474
0.004518
0.00823527
0.0088692
0.00913186
0.00911414
0.00889095
0.00828794
0.00696428
0.00512643
0.00381346
0.00316092
0.00847663
0.00910727
0.00937961
0.00952844
0.009201
0.00783719
0.00532053
0.0038525
0.00308507
0.0026862
0.00872194
0.00933954
0.00972064
0.0102398
0.00940868
0.00649176
0.00451161
0.00336192
0.00278472
0.00249812
0.00885559
0.00951641
0.0100243
0.0107297
0.00926805
0.00579461
0.00414132
0.00319494
0.00270544
0.00247023
0.00890379
0.00959145
0.0101493
0.0108098
0.0085054
0.00527789
0.0039892
0.00336591
0.00307126
0.00290198
0.0088593
0.00960661
0.00983384
0.00997887
0.00749282
0.00494118
0.00409028
0.00365829
0.003464
0.0032903
0.00716795
0.00713766
0.00705315
0.00689315
0.00669836
0.00648208
0.00590167
0.0050618
0.00539034
0.00547419
0.00700633
0.00700283
0.0069261
0.00674902
0.00652533
0.00624579
0.0055348
0.00488688
0.00523531
0.00520529
0.00671328
0.00670769
0.00661812
0.00647567
0.0062773
0.0059527
0.0052341
0.00462728
0.00507496
0.00515619
0.00656234
0.00657312
0.00647037
0.00635002
0.00615675
0.00573746
0.00488696
0.00431822
0.0046532
0.004946
0.00636784
0.00632651
0.00620068
0.00620103
0.00598724
0.00532096
0.00442376
0.00406482
0.00415852
0.00442943
0.00624909
0.00614269
0.00606995
0.00614489
0.00576809
0.00467269
0.00405003
0.0037916
0.00375047
0.00382265
0.00601922
0.00582309
0.00581065
0.00602555
0.00528158
0.00431018
0.00380986
0.00354526
0.00347488
0.00343083
0.00581085
0.00556375
0.00556012
0.00573761
0.00499346
0.00408376
0.00362281
0.00328433
0.00314023
0.00303697
0.0055494
0.00521659
0.00514191
0.00538078
0.00478706
0.00383199
0.00342982
0.00317174
0.00304601
0.0028646
0.00534088
0.00492636
0.00495425
0.00512639
0.00441179
0.0036994
0.00328412
0.00302229
0.00283982
0.00247467
0.00515617
0.00572488
0.00596087
0.00592325
0.00587489
0.00612116
0.00641286
0.00766563
0.00818123
0.00550608
0.00482226
0.00559316
0.00585379
0.00583429
0.00567766
0.00578003
0.00607224
0.00661584
0.00825605
0.00751036
0.00468779
0.00547965
0.00573664
0.00570279
0.00551668
0.00547058
0.00564572
0.0059957
0.00737351
0.00801111
0.00456528
0.00545859
0.00567892
0.00562519
0.00537874
0.00512979
0.0052681
0.00560716
0.00657382
0.00784665
0.00453334
0.0055265
0.00559149
0.00548438
0.00513943
0.0047924
0.00491994
0.00529374
0.00634281
0.00780977
0.00501149
0.00554907
0.00552073
0.0053171
0.00483803
0.00447532
0.00459788
0.00503203
0.00649457
0.0070156
0.0053227
0.00549464
0.00539491
0.0050144
0.00445821
0.00413539
0.00426934
0.00485329
0.00657527
0.00535444
0.00545328
0.00542599
0.00521632
0.00462724
0.00407467
0.00379335
0.00391915
0.00450996
0.00644581
0.00584126
0.00545939
0.00533484
0.00494465
0.00415496
0.00361192
0.00340611
0.00350683
0.00389343
0.0055941
0.00612338
0.00539388
0.00518841
0.00453906
0.0036648
0.00320984
0.00307877
0.00316157
0.00344629
0.00467213
0.00466493
0.00413822
0.00512557
0.00700852
0.00787585
0.00821103
0.00809308
0.00667489
0.00618554
0.00608012
0.00520661
0.00378436
0.00428472
0.00519013
0.00614284
0.00764853
0.00844769
0.00817789
0.00570352
0.00517769
0.0048361
0.00351702
0.00393414
0.00462942
0.00538832
0.00601299
0.0076019
0.00910903
0.00774474
0.00523063
0.00470071
0.00328093
0.00364627
0.00439304
0.00512949
0.00558658
0.00612419
0.00776915
0.0110382
0.00591659
0.00489757
0.0031814
0.0035532
0.00433259
0.00507282
0.00546484
0.0057953
0.00649244
0.00972588
0.00842811
0.00542586
0.00314161
0.00363596
0.0046421
0.00537784
0.00554621
0.00569976
0.00610198
0.00767481
0.00948035
0.00683368
0.00330145
0.00405633
0.00513293
0.0056881
0.00585187
0.00579666
0.00593631
0.00661858
0.00923708
0.00713798
0.00384552
0.00477579
0.00587983
0.00633936
0.00629483
0.00597403
0.00593063
0.00623254
0.00861626
0.00817275
0.00478686
0.00596621
0.00683782
0.00681222
0.00656241
0.00603941
0.00584277
0.00599823
0.00719247
0.00811261
0.00617485
0.00732469
0.00733134
0.00703596
0.00643493
0.00585259
0.0056522
0.00573846
0.0061427
0.00578608
0.00283652
0.0023797
0.00224751
0.00237904
0.00244689
0.0025628
0.00271444
0.00274245
0.00276478
0.00300423
0.00271716
0.00237799
0.00245764
0.00278319
0.0030063
0.00311698
0.00312172
0.00315934
0.00331193
0.0036105
0.00258896
0.00258579
0.00317705
0.00351059
0.003631
0.00376069
0.00396285
0.00436779
0.00520348
0.00589891
0.00282806
0.00334076
0.00404812
0.00431934
0.00445754
0.00465393
0.00503414
0.00550707
0.00584352
0.00595636
0.00338762
0.00415418
0.00469578
0.00491073
0.00505309
0.00523703
0.0055095
0.00569483
0.00572837
0.005206
0.00361076
0.00437856
0.0050268
0.00521415
0.00529367
0.00544621
0.00557967
0.00563442
0.00543013
0.00501308
0.00380212
0.00421682
0.00505956
0.00535702
0.00542182
0.00545982
0.0055636
0.00555872
0.00538173
0.00496854
0.00393791
0.00408481
0.00479591
0.00536627
0.00554099
0.00549508
0.00553486
0.00549001
0.00531692
0.00491133
0.00385583
0.00403611
0.00434538
0.00504553
0.00550235
0.00558285
0.00560372
0.00555745
0.00534352
0.00517422
0.00366718
0.00405228
0.00428559
0.00468764
0.00519716
0.00549911
0.00567801
0.0057207
0.0054855
0.00514744
0.00200605
0.00191667
0.00184902
0.00179793
0.00190189
0.00222753
0.00260956
0.00290429
0.00319939
0.00332582
0.0020759
0.00194458
0.00188786
0.00186804
0.00195825
0.00229733
0.00277698
0.00309688
0.0032477
0.00338304
0.00212853
0.00199235
0.00192122
0.0019214
0.0020146
0.00233462
0.00285556
0.00326247
0.00350045
0.0038742
0.00220272
0.00209743
0.0019932
0.00197588
0.00207001
0.00236668
0.00294495
0.00348247
0.00381095
0.00423519
0.00223054
0.00217341
0.00211415
0.00209048
0.00214961
0.00240006
0.00297375
0.00364453
0.00396033
0.00420129
0.00225831
0.0022059
0.00219325
0.00218686
0.00225164
0.00243204
0.00295268
0.00367351
0.00396878
0.0041491
0.00231976
0.00222632
0.00223245
0.0022735
0.00232746
0.00245886
0.00285667
0.00363162
0.00395244
0.00418244
0.00239121
0.00229558
0.00225732
0.00229985
0.00237387
0.00248855
0.00269762
0.00338684
0.00386294
0.00415071
0.00233982
0.00229273
0.00227749
0.00235781
0.00245425
0.0025631
0.00267218
0.00289216
0.00335961
0.00389039
0.00237878
0.00241089
0.0025182
0.00270314
0.00290938
0.00310226
0.00309397
0.00304862
0.00322952
0.0034551
0.00219196
0.00216322
0.00199818
0.0017737
0.00168106
0.00164367
0.00165021
0.00167406
0.00165739
0.00160917
0.00213336
0.00218136
0.00208674
0.00194002
0.00183544
0.00171129
0.00156319
0.00154357
0.00142929
0.0013778
0.00203752
0.00212335
0.00206154
0.00193975
0.00184059
0.00174053
0.00150911
0.00145072
0.0013824
0.00136169
0.00175006
0.00191877
0.00195977
0.00187733
0.00175689
0.00171869
0.00153137
0.00145609
0.00138377
0.00136587
0.00168882
0.0016594
0.00174153
0.0017616
0.0017169
0.00168945
0.00162686
0.00148445
0.00139549
0.00139744
0.00168705
0.00157515
0.00157553
0.0015901
0.00166671
0.00165936
0.00164729
0.00157963
0.00144669
0.00141376
0.0016637
0.00155255
0.0015448
0.00154967
0.00151906
0.00150595
0.0014943
0.00155542
0.00148566
0.00142841
0.00162115
0.00149734
0.00137558
0.00129268
0.00127252
0.00126578
0.00134047
0.00149378
0.00145519
0.00141355
0.00143291
0.00131868
0.00126849
0.00125306
0.00127551
0.00128158
0.00136424
0.0014599
0.00153523
0.00148881
0.00124003
0.00120868
0.00119354
0.0012034
0.00126509
0.00132505
0.00134118
0.00158265
0.00175003
0.00144653
0.000575124
0.00058364
0.000609766
0.000634395
0.000647082
0.00066397
0.000671653
0.000674838
0.00066827
0.000660685
0.000572231
0.000584237
0.000601219
0.000606846
0.000624327
0.000658631
0.00067453
0.000685576
0.000700249
0.000706049
0.000555081
0.000562206
0.000570126
0.000564738
0.000573113
0.000601896
0.000643242
0.00066107
0.00067199
0.000676067
0.000557326
0.000557724
0.00055849
0.00055779
0.000557744
0.000562802
0.000589752
0.000597926
0.00060023
0.000594119
0.000583218
0.000572885
0.000564833
0.000560529
0.000558567
0.000559819
0.000567027
0.000582149
0.000581992
0.000575753
0.000595691
0.000590674
0.000584474
0.000577388
0.000570187
0.000563432
0.000564947
0.000569496
0.00057364
0.000573294
0.000591495
0.000589551
0.000586513
0.000582332
0.000579039
0.000573624
0.000568883
0.000569706
0.00057137
0.000572854
0.000567449
0.000575413
0.000582151
0.000581418
0.000579548
0.000576115
0.0005727
0.000572346
0.000571168
0.000569741
0.000562109
0.000575452
0.000579544
0.000579559
0.000578542
0.000575671
0.000573303
0.000567958
0.000557481
0.000564335
0.000558755
0.000572443
0.000574204
0.00057433
0.00057415
0.000573018
0.000570343
0.000568695
0.000580049
0.000591194
0.00050192
0.000506325
0.000525408
0.000532306
0.000557841
0.000566795
0.00054501
0.000519151
0.000511727
0.000522526
0.0005178
0.000514666
0.000522815
0.000525295
0.000537097
0.000515619
0.000502729
0.000495481
0.000498319
0.00052565
0.000548656
0.000524675
0.000513424
0.000504394
0.000502745
0.000500745
0.000495209
0.00049175
0.00049627
0.000530168
0.000544589
0.000551886
0.000540285
0.000526953
0.000516139
0.000512838
0.00050369
0.000499512
0.000497093
0.000513587
0.000482294
0.000495406
0.000523641
0.00054234
0.000552516
0.000553941
0.000532795
0.000514503
0.000501655
0.000496941
0.000529432
0.000528521
0.000529353
0.000537202
0.000553605
0.000569499
0.000570755
0.000549567
0.000521792
0.000501241
0.000560529
0.000563668
0.000560713
0.000553005
0.000556641
0.000568962
0.000580033
0.000577473
0.000546977
0.000532913
0.000554841
0.000558208
0.000559698
0.000558703
0.000560943
0.000570265
0.000585457
0.000583122
0.00055252
0.000540489
0.000562673
0.000565377
0.000561172
0.000561409
0.000564747
0.000578545
0.000590845
0.000560802
0.000547476
0.000540026
0.000543898
0.000571552
0.000567145
0.000570133
0.000577506
0.000588941
0.00055768
0.000543208
0.000544551
0.000545836
0.000497867
0.000530518
0.000624096
0.000618835
0.000636291
0.000738339
0.000811578
0.000823066
0.000818001
0.00079737
0.000563649
0.000561623
0.000555101
0.000517327
0.000527419
0.000581623
0.000616295
0.000618202
0.000602771
0.000583661
0.000554157
0.000523016
0.000491322
0.000487536
0.000499864
0.000522304
0.000532576
0.000529465
0.000514922
0.000498322
0.000534313
0.000498759
0.000489358
0.0004896
0.000500922
0.000510451
0.000512299
0.00050795
0.000490685
0.000466751
0.000545304
0.000508764
0.000500682
0.000500597
0.000511064
0.000517388
0.000517688
0.000511091
0.000489956
0.000460694
0.000579125
0.00052561
0.00051146
0.00050946
0.000515181
0.000527128
0.000528824
0.000523922
0.000503464
0.000474317
0.000600273
0.00055763
0.000518968
0.000514893
0.00052018
0.000534585
0.000537863
0.000537974
0.000529623
0.000506326
0.00061811
0.000566044
0.000528663
0.000523772
0.000530738
0.000554157
0.000570248
0.000575067
0.000563196
0.000527893
0.000617068
0.000563774
0.000526966
0.000522271
0.000534166
0.000568585
0.000583869
0.000585512
0.000566806
0.000530708
0.000603332
0.000553722
0.000520467
0.000516786
0.000530394
0.000560411
0.000571169
0.000564746
0.000531937
0.000503119
0.0025057
0.00234206
0.00224613
0.00221802
0.00220193
0.00216088
0.00211782
0.00210287
0.00210706
0.00215766
0.00254052
0.00238335
0.00224836
0.00216381
0.00211301
0.00206755
0.00202382
0.00201006
0.00201122
0.00201613
0.0025286
0.00245696
0.00231555
0.00219221
0.00211538
0.00205563
0.00200263
0.00196144
0.00195484
0.00195672
0.00248262
0.00244991
0.00237936
0.00227529
0.00216369
0.00207999
0.00201476
0.00196437
0.00193832
0.00193613
0.00245177
0.0024227
0.00239187
0.00233105
0.00224835
0.00215434
0.00206729
0.00199434
0.00195074
0.00193594
0.00244287
0.00240942
0.00238976
0.00235736
0.00230477
0.00223243
0.00215314
0.00207188
0.00199739
0.00195329
0.00247179
0.00241969
0.00239306
0.0023788
0.00235078
0.00229939
0.00223266
0.00215751
0.00207371
0.0020041
0.00255506
0.00245863
0.00241078
0.00239323
0.0023717
0.0023333
0.00228008
0.00220875
0.00213258
0.00205241
0.00265183
0.00252278
0.00245005
0.00240608
0.0023746
0.00233894
0.00229083
0.00221836
0.00215546
0.00208459
0.00281829
0.00263042
0.00252073
0.00245457
0.0024037
0.00235236
0.00229962
0.00223353
0.00217321
0.00211136
0.00237376
0.00227806
0.00218006
0.00215288
0.00215351
0.00213943
0.00209526
0.00207884
0.00207987
0.00211329
0.00236335
0.00230832
0.00217852
0.00208972
0.00204543
0.00201663
0.00197912
0.00196683
0.00197173
0.00196993
0.00233306
0.00233172
0.00226043
0.00212557
0.00204778
0.00199508
0.00195194
0.00191912
0.00190926
0.00191092
0.00225891
0.00230576
0.00229489
0.0022292
0.00211328
0.00202795
0.00196946
0.00192545
0.00190197
0.0019022
0.00221416
0.00226973
0.00229095
0.00227678
0.00221817
0.00212655
0.0020437
0.001972
0.00192569
0.00191102
0.00222917
0.00224757
0.00229096
0.00229567
0.00227955
0.00222364
0.00214809
0.00208158
0.00200864
0.00195801
0.00228906
0.00228548
0.00229885
0.00231863
0.00231752
0.00229912
0.00224778
0.00217719
0.00211604
0.00204303
0.00239346
0.00235259
0.00233093
0.00233081
0.00233541
0.00232928
0.00230767
0.00224774
0.00219181
0.00210771
0.00253364
0.00245355
0.00238153
0.00234535
0.00233841
0.00232959
0.00231138
0.00226855
0.00222066
0.00214716
0.002742
0.00259998
0.00247318
0.00240028
0.00236072
0.00233333
0.00229788
0.00226081
0.00222234
0.00216762
0.0021649
0.00214549
0.00208652
0.00207773
0.00208531
0.00208221
0.0020428
0.00202463
0.00202733
0.0020473
0.00214636
0.00213931
0.00207269
0.00199016
0.00195307
0.00193286
0.00190704
0.00190404
0.00190954
0.00191148
0.00211649
0.00213494
0.00211309
0.00201688
0.0019483
0.00191009
0.00188082
0.00186206
0.00186041
0.00186474
0.00204164
0.00211557
0.00213227
0.00210982
0.00202092
0.001949
0.00190376
0.00187508
0.00186315
0.00186627
0.00199872
0.00207077
0.00214298
0.00216363
0.00214479
0.00207355
0.00200708
0.0019518
0.00191135
0.00189961
0.00202655
0.00206119
0.00214581
0.00220664
0.00222004
0.00220056
0.00214101
0.00208833
0.0020387
0.00198724
0.00209821
0.00211691
0.00217453
0.00223816
0.00227681
0.00228034
0.00226314
0.00220677
0.00216332