/*--------------------------------*- C++ -*----------------------------------*\
  =========                 |
  \\      /  F ield         | OpenFOAM: The Open Source CFD Toolbox
   \\    /   O peration     | Website:  https://openfoam.org
    \\  /    A nd           | Version:  9
     \\/     M anipulation  |
\*---------------------------------------------------------------------------*/
FoamFile
{
    format      ascii;
    class       volScalarField;
    location    "79";
    object      f4.gas;
}
// * * * * * * * * * * * * * * * * * * * * * * * * * * * * * * * * * * * * * //

dimensions      [0 0 0 0 0 0 0];

internalField   nonuniform List<scalar> 
137980
(
0.00175136
0.00184892
0.00208445
0.00245988
0.0028618
0.00308042
0.00313804
0.00315409
0.00321633
0.00327594
0.00167338
0.00175176
0.00193133
0.00225357
0.00272933
0.00309256
0.00317053
0.00317758
0.00320222
0.00324998
0.00164975
0.00170051
0.0018171
0.00203463
0.00238948
0.00289189
0.00317518
0.00319908
0.00314099
0.0030438
0.00157115
0.00160351
0.00167703
0.00183096
0.0020796
0.00239296
0.00278968
0.00306008
0.00308265
0.00292107
0.00149809
0.00151844
0.00156437
0.00166281
0.00182001
0.00203598
0.00227951
0.00253668
0.00269212
0.00267606
0.00142891
0.00143615
0.00145981
0.00152203
0.00161609
0.00176033
0.00191737
0.00207639
0.00219217
0.00223001
0.00138693
0.00138081
0.00138725
0.00141651
0.00147552
0.0015585
0.00167134
0.00178969
0.00187058
0.00192049
0.00137295
0.00135795
0.00135793
0.00136448
0.00140148
0.00145504
0.00152041
0.00160027
0.00165835
0.00171216
0.00137977
0.00135679
0.0013512
0.00135214
0.00136532
0.00141335
0.00147404
0.00152423
0.00155025
0.00158825
0.00142617
0.00138308
0.00137284
0.00136984
0.001372
0.00139447
0.00145101
0.00150436
0.00153149
0.00157512
0.00163836
0.00176972
0.00201319
0.00236628
0.00276697
0.00302119
0.00311498
0.00317289
0.00330292
0.00345527
0.00156667
0.00167989
0.00186669
0.00221871
0.00273752
0.00306323
0.00315509
0.00319002
0.00328308
0.00340688
0.00154129
0.0016352
0.00177902
0.0020414
0.00244579
0.0029877
0.00318512
0.00321561
0.00322731
0.00329118
0.00147691
0.00153351
0.00162689
0.00183237
0.00212075
0.00253251
0.00301027
0.00315639
0.0031692
0.00304693
0.00140948
0.00144614
0.00151381
0.0016465
0.00184563
0.00211579
0.0024618
0.00283041
0.00295015
0.0028913
0.00135307
0.00136991
0.00141057
0.0014867
0.00162695
0.00179727
0.00201074
0.00223971
0.00241169
0.00246621
0.00131934
0.00131669
0.00133763
0.00137243
0.00145542
0.00157327
0.00170549
0.00185256
0.00197174
0.00204736
0.0013145
0.00129414
0.00129941
0.0013239
0.00134662
0.0014231
0.00151954
0.00161369
0.00168548
0.00175402
0.00133452
0.00129863
0.00129055
0.0013042
0.00132328
0.00134429
0.00140131
0.0014646
0.00150633
0.00156348
0.00138556
0.00133288
0.00130755
0.0013097
0.00132651
0.0013503
0.00137831
0.00140393
0.00143234
0.00148861
0.00154528
0.0016993
0.0019445
0.00229332
0.00272115
0.00302894
0.00317774
0.00326794
0.00350253
0.00417811
0.00155155
0.00166356
0.00185788
0.00223493
0.0027554
0.00310077
0.00326851
0.00352823
0.00384165
0.00427602
0.00146497
0.00159286
0.00179058
0.00208801
0.00258276
0.00310141
0.0033114
0.0035069
0.00389193
0.00425421
0.00141028
0.00148523
0.00163699
0.00188139
0.00226986
0.00282461
0.00325259
0.00344195
0.00371078
0.00389371
0.00134668
0.00139579
0.00150903
0.00168421
0.00195928
0.00236138
0.00289827
0.00326262
0.00342417
0.00345537
0.00130166
0.00131905
0.00138126
0.00150898
0.00169631
0.00196171
0.00232367
0.00273298
0.002966
0.003052
0.00127264
0.00126948
0.00128883
0.00137284
0.0014887
0.00166411
0.00188242
0.00214401
0.00236278
0.00250703
0.00126138
0.00124623
0.00124865
0.00127404
0.00135665
0.00145736
0.00159304
0.00174419
0.00187129
0.00199701
0.00125788
0.00124172
0.00123786
0.00123643
0.00127241
0.00134813
0.00142411
0.00150741
0.00156609
0.00163916
0.0012852
0.00125391
0.00124911
0.00124889
0.0012524
0.00128393
0.00134492
0.00140731
0.00144056
0.0014932
0.00153508
0.00167748
0.00187962
0.00219051
0.00261061
0.0029838
0.00316553
0.00308454
0.00339679
0.00373801
0.00156236
0.00166471
0.00185144
0.00221711
0.00272453
0.00319979
0.00341912
0.00349794
0.00372252
0.00414478
0.00144856
0.00159192
0.00181415
0.00217076
0.00270623
0.00330016
0.00363058
0.00389367
0.00423103
0.00448294
0.00139905
0.00148766
0.00167236
0.00199762
0.0025278
0.00324563
0.00379678
0.00411391
0.00455457
0.00473966
0.00131783
0.00139012
0.00154161
0.00179897
0.00223369
0.00293145
0.00371382
0.00413185
0.00454357
0.00478022
0.00124948
0.00129039
0.00140494
0.00159878
0.0019115
0.00242615
0.00326252
0.0039593
0.00440394
0.00467655
0.00120325
0.00121771
0.00129334
0.00142276
0.00164166
0.00198634
0.00249823
0.0032542
0.00392584
0.00428434
0.00117211
0.00117231
0.00120682
0.00129694
0.00143943
0.00165553
0.00196184
0.00234762
0.00276207
0.00318693
0.00116058
0.00115199
0.00116268
0.00122048
0.00130736
0.00144651
0.00162561
0.00181428
0.00195796
0.00215197
0.00120494
0.00115856
0.00115904
0.00117975
0.00124366
0.00132816
0.0014513
0.00156456
0.00161545
0.00160363
0.0015433
0.00167929
0.00184097
0.00207407
0.00240095
0.00284314
0.00309209
0.00317352
0.00363325
0.00342157
0.00155594
0.00165965
0.00183565
0.00217131
0.00265186
0.0031317
0.00342034
0.00355652
0.00394545
0.00386374
0.00140703
0.00158632
0.00184135
0.00224424
0.00282606
0.00344423
0.00374782
0.00402066
0.00437221
0.00439623
0.00135435
0.00148342
0.0017549
0.00221367
0.0028934
0.00364218
0.00411426
0.00438377
0.00482543
0.00496801
0.00125218
0.00139764
0.00163255
0.00206063
0.00277158
0.00367126
0.00439314
0.0047653
0.00508791
0.00521493
0.00118791
0.00128595
0.00147479
0.00182885
0.00247147
0.00345114
0.00438486
0.00499452
0.0053827
0.00550507
0.00114889
0.00119614
0.00133341
0.00158782
0.00207193
0.0029168
0.00408115
0.00495367
0.00554114
0.00595512
0.00113323
0.0011385
0.00122789
0.00141096
0.00174786
0.00233843
0.00326521
0.00448589
0.00525655
0.00577845
0.00115618
0.00112303
0.00115776
0.00127796
0.00151316
0.00190359
0.00247281
0.00322189
0.00391212
0.00433441
0.00121564
0.00115014
0.00113881
0.00119738
0.00134493
0.00164374
0.00207208
0.0024198
0.00236847
0.00213681
0.00158354
0.00170529
0.00180111
0.0019367
0.00216545
0.00256573
0.00317735
0.00361843
0.0033245
0.00336277
0.00152022
0.00163303
0.00181338
0.00210819
0.00255551
0.00314793
0.00357802
0.00395431
0.00399016
0.00383871
0.00135078
0.00157909
0.00186497
0.00228487
0.00290883
0.00359765
0.00405886
0.00443116
0.0046964
0.00451114
0.00129256
0.00148873
0.0018143
0.00232989
0.00308949
0.00395555
0.00457175
0.00507201
0.00546857
0.00527551
0.00124018
0.00141854
0.00172457
0.00226858
0.00313728
0.00419181
0.00502702
0.00561258
0.00599996
0.00587268
0.00120087
0.0013117
0.00159832
0.00213869
0.00306545
0.00430071
0.00543357
0.00623227
0.00655914
0.00653659
0.00118727
0.00122937
0.00145764
0.00196874
0.00290221
0.00427503
0.00581421
0.00656158
0.0068922
0.00692102
0.00124375
0.00119065
0.00132772
0.00176405
0.00262818
0.00407067
0.00592613
0.00726499
0.0077957
0.00798099
0.00134957
0.00123714
0.00123892
0.00154477
0.002263
0.00352172
0.005506
0.00711243
0.00798044
0.00903317
0.00139911
0.00126866
0.00122131
0.00138238
0.0019122
0.00300939
0.00454232
0.00598495
0.00603809
0.00546086
0.00169417
0.0017209
0.00176952
0.00188582
0.00209729
0.00267518
0.00429545
0.0039809
0.00323523
0.0054287
0.00149988
0.00165407
0.00185543
0.00217983
0.00271495
0.00388494
0.00503747
0.00450794
0.00366224
0.00548695
0.00138022
0.00164095
0.00200181
0.00253902
0.00342434
0.00498934
0.00564765
0.0052083
0.00422621
0.00560306
0.00133782
0.00159665
0.00207163
0.00283843
0.00411006
0.00578326
0.00627394
0.00596529
0.00492624
0.00585182
0.00132786
0.00158425
0.00212138
0.00309299
0.00483266
0.00645826
0.00688883
0.00670787
0.00570738
0.00614163
0.00134837
0.00153815
0.00214354
0.00336283
0.005565
0.00709854
0.00753162
0.0074508
0.00671016
0.00672521
0.00142565
0.00150951
0.00213298
0.00363104
0.00636965
0.00783303
0.00827479
0.00828862
0.00761533
0.00737842
0.00162107
0.00150384
0.00205858
0.00377366
0.0069194
0.00856467
0.00914383
0.00925839
0.00858556
0.00826687
0.00180364
0.00164595
0.00197944
0.00375726
0.00731293
0.00904999
0.0097847
0.0100103
0.00957962
0.00946444
0.00190129
0.00170265
0.00199927
0.00361452
0.00726704
0.00955749
0.0113695
0.0122019
0.0124936
0.0121521
0.0018232
0.00177592
0.00183717
0.00199458
0.0022466
0.00355477
0.00334612
0.00312311
0.00612896
0.02136
0.00160035
0.00184565
0.00228782
0.00309658
0.003944
0.00436944
0.00410916
0.00421228
0.0100029
0.0219524
0.00165934
0.00218993
0.0033051
0.00449234
0.00498157
0.00507748
0.00489537
0.0057116
0.0139594
0.021509
0.00172677
0.00249407
0.00421526
0.00540144
0.00580532
0.00583144
0.00579487
0.00737818
0.0162412
0.0201057
0.00185561
0.002771
0.00487048
0.00611797
0.00651344
0.00657071
0.00660379
0.00870237
0.0168893
0.0197994
0.00201164
0.00295417
0.00532213
0.00672321
0.00719331
0.00734627
0.0074255
0.00934702
0.0167441
0.0193671
0.00217826
0.00302822
0.00567854
0.00731098
0.0078425
0.00800571
0.00798976
0.00941963
0.0161266
0.0187581
0.00241732
0.00296291
0.00576227
0.00776226
0.00846516
0.00875015
0.00875878
0.00958521
0.0151334
0.0174484
0.00269089
0.00301084
0.00579767
0.00820497
0.00908092
0.00935158
0.00932989
0.00982394
0.0137346
0.0167037
0.00341772
0.00332283
0.00609123
0.00858221
0.00949977
0.0100044
0.0102454
0.0103636
0.0123405
0.0151295
0.0019721
0.00198643
0.00206793
0.00213096
0.00238401
0.00295738
0.00320218
0.00675584
0.0253976
0.0271787
0.00199756
0.00247631
0.00273823
0.00291037
0.00340184
0.00379051
0.00518426
0.0155253
0.0239261
0.017463
0.00277936
0.00359386
0.00399019
0.00419721
0.00461732
0.00546854
0.0098827
0.0184343
0.019222
0.00946579
0.00338582
0.0045462
0.00499882
0.00521477
0.00580551
0.00793598
0.0150009
0.0178552
0.0130886
0.00658367
0.00407531
0.00534685
0.00589784
0.00628453
0.00735971
0.0109905
0.0159719
0.0165063
0.009181
0.00540153
0.00460814
0.00605872
0.00669419
0.00727556
0.00889282
0.0130478
0.015856
0.0146855
0.00763983
0.00522789
0.00500201
0.00652352
0.00724143
0.00812925
0.0099818
0.0139579
0.0155891
0.0135787
0.00730111
0.00537449
0.00527513
0.00691828
0.00786924
0.00886371
0.0108466
0.0142323
0.0152266
0.0130235
0.00745901
0.00582424
0.00535111
0.00697721
0.00812876
0.00932982
0.0112637
0.0142115
0.0151253
0.0131298
0.00782554
0.00626516
0.00558333
0.00718585
0.00860214
0.00984368
0.0115499
0.0140942
0.0149232
0.0137246
0.00888419
0.00722202
0.00261757
0.0025984
0.00252799
0.00256688
0.0030745
0.00441566
0.011501
0.0240113
0.0234392
0.0216508
0.00272844
0.00293354
0.00293837
0.00327867
0.00450376
0.00835907
0.0200239
0.0232376
0.019882
0.0159114
0.00327884
0.00364596
0.00378874
0.00446932
0.00715805
0.0164285
0.0205595
0.0202313
0.0125062
0.00961706
0.00423712
0.00463045
0.0050675
0.00670314
0.0122893
0.0187781
0.0195935
0.0141821
0.00854019
0.00650673
0.00499208
0.00546656
0.00637771
0.009248
0.0160582
0.0186031
0.0174086
0.00976992
0.00656496
0.00524969
0.00590135
0.00654461
0.00798973
0.0118969
0.0171597
0.0180194
0.013887
0.00762551
0.00552448
0.00464717
0.0064116
0.00722093
0.00904865
0.0135865
0.0171743
0.0172613
0.0118755
0.0066187
0.0050091
0.004418
0.00703857
0.00807059
0.0101828
0.0146843
0.0170958
0.0163621
0.0102225
0.00606426
0.00476943
0.00436819
0.00730528
0.00828879
0.0104274
0.0148434
0.016882
0.0161241
0.0102231
0.00608486
0.00473253
0.00437826
0.00755027
0.00876597
0.0110275
0.0150878
0.0167781
0.016304
0.011074
0.00640548
0.00476897
0.00447933
0.00322346
0.0031676
0.00306187
0.00329193
0.00408737
0.00602792
0.015647
0.0181388
0.0168108
0.017627
0.00319179
0.00330946
0.00334588
0.00389285
0.00552701
0.00980333
0.0183018
0.0192529
0.0186282
0.0189366
0.00344557
0.00369748
0.00394103
0.00494989
0.00777963
0.0157793
0.0192781
0.0192193
0.0182671
0.0178532
0.0042561
0.00456937
0.00497688
0.00668723
0.0123045
0.018453
0.0195652
0.0187407
0.0168617
0.013794
0.00506064
0.00524563
0.0061986
0.0095433
0.0165095
0.0192851
0.0194151
0.0175762
0.013892
0.0102336
0.00618516
0.00659947
0.00825933
0.0128249
0.018346
0.0194642
0.0187002
0.015205
0.0111363
0.00816194
0.00684706
0.00732215
0.00965424
0.0158431
0.0190781
0.0194314
0.0179439
0.0135395
0.0096304
0.00727565
0.00742967
0.00850735
0.0116742
0.017462
0.0193217
0.0193005
0.016688
0.0122553
0.00881842
0.00656187
0.00783924
0.00882042
0.0124124
0.018077
0.0195277
0.0193517
0.0165338
0.0119825
0.00825558
0.00640862
0.00810943
0.00957016
0.0135289
0.0186876
0.0196963
0.0194891
0.0172401
0.0125587
0.00831161
0.00596093
0.00406917
0.00416355
0.00431486
0.00492771
0.00552045
0.00772651
0.0106739
0.00968507
0.00978392
0.0103202
0.00433658
0.00453042
0.00486634
0.0057289
0.00674561
0.00908933
0.0112193
0.0103922
0.0102508
0.0104975
0.00527045
0.00525355
0.00579908
0.00687638
0.00843665
0.0108735
0.011911
0.0107537
0.0105398
0.0109178
0.00696013
0.00672672
0.00725937
0.00863988
0.0109455
0.0120885
0.0122287
0.0109237
0.010934
0.0115773
0.00931751
0.00862319
0.00930669
0.0111574
0.012621
0.0129853
0.0122112
0.0111896
0.0113391
0.0122067
0.0111818
0.0108503
0.0116241
0.0129942
0.0138974
0.0133986
0.0123388
0.0117521
0.0122379
0.0134049
0.0121021
0.011849
0.0128238
0.0144728
0.0150467
0.0141084
0.0127673
0.0125894
0.0130232
0.0152103
0.0136059
0.0134044
0.0143315
0.0162592
0.0163661
0.0150961
0.0138777
0.0138243
0.0147221
0.0157168
0.0137983
0.0138284
0.0147129
0.0171068
0.0178069
0.0171531
0.0152253
0.0151105
0.0154685
0.0168167
0.014146
0.0145814
0.0155745
0.0179086
0.0190377
0.0189683
0.0182439
0.0165834
0.0171782
0.0164266
0.0114736
0.0134482
0.0140209
0.0148179
0.0151461
0.0150949
0.0123257
0.0108399
0.0107766
0.0107814
0.01263
0.0126652
0.0135311
0.0147605
0.0156612
0.0164083
0.0164309
0.0145561
0.0133622
0.0127221
0.0129496
0.0129043
0.0134162
0.0144754
0.0153516
0.0163866
0.0177842
0.0177549
0.0166853
0.0145641
0.0132413
0.0130011
0.0132591
0.0143089
0.0150649
0.0158498
0.0171439
0.0188974
0.0187097
0.0174283
0.0123379
0.0120722
0.0124262
0.01357
0.0147284
0.0156821
0.0164138
0.0184826
0.0196725
0.0186703
0.0110277
0.0113667
0.0121496
0.0134233
0.0143816
0.0151776
0.0159421
0.0178275
0.0201486
0.0184198
0.010513
0.0111675
0.0121281
0.0134204
0.0142497
0.0150053
0.0156391
0.0169407
0.0202788
0.0186071
0.0102419
0.0111753
0.0122557
0.0135022
0.0141675
0.0151141
0.0156424
0.0166841
0.020163
0.0190237
0.0101975
0.0115358
0.0126316
0.0137978
0.0146118
0.0163801
0.0165611
0.0170213
0.0198046
0.019954
0.0109677
0.0125022
0.0136447
0.0146942
0.017126
0.0199334
0.0197662
0.0185193
0.0202543
0.0194251
0.0111244
0.0110729
0.0107596
0.0106722
0.0106942
0.0109156
0.011398
0.0117016
0.0117597
0.0119532
0.00994739
0.00956837
0.00944162
0.00950551
0.00974853
0.0102295
0.0107311
0.0111643
0.0114045
0.0119632
0.00927685
0.00886421
0.00877714
0.00894919
0.00938979
0.00992449
0.0104513
0.0109573
0.0112552
0.0119347
0.00813608
0.0079849
0.00816827
0.00872453
0.0092983
0.00985657
0.0103695
0.0108873
0.0112126
0.0119401
0.00743557
0.00763972
0.00802902
0.00878719
0.00945707
0.0102435
0.0107429
0.0110396
0.0112848
0.0120023
0.00715818
0.00759497
0.0082193
0.0094393
0.0105277
0.0115851
0.012083
0.0120456
0.011937
0.0126703
0.00716613
0.00802826
0.00927009
0.0110995
0.0127797
0.0137551
0.0137071
0.0134581
0.0126804
0.013145
0.00811964
0.00936142
0.0114093
0.0141074
0.0149677
0.014828
0.0143779
0.0140135
0.0131892
0.0133954
0.00932596
0.0109472
0.0142524
0.0159555
0.0157261
0.0151843
0.0143793
0.013751
0.0130467
0.0140103
0.00979112
0.0123446
0.0158352
0.0167251
0.0159124
0.0151329
0.0139877
0.0133008
0.0130425
0.0126406
0.00999333
0.0103545
0.0104721
0.0104449
0.0103812
0.0102684
0.0101348
0.0100046
0.00964606
0.00775551
0.00989756
0.0102723
0.0104088
0.0103653
0.0102502
0.0100119
0.00987472
0.00970778
0.0092222
0.00812323
0.00988102
0.0102793
0.0104151
0.0103616
0.0102178
0.00991259
0.00969511
0.00937661
0.00844327
0.00757883
0.00991476
0.0103962
0.0105372
0.010466
0.0102505
0.00988966
0.00948053
0.00869841
0.00725211
0.00630652
0.0100793
0.0105726
0.0107262
0.0106792
0.0104487
0.00990993
0.00878415
0.00708017
0.00557075
0.00465146
0.0102229
0.0107378
0.0109051
0.0110021
0.010725
0.00959071
0.00730037
0.00549792
0.00450959
0.00397113
0.0103816
0.010922
0.0111824
0.0116436
0.0109349
0.00832785
0.0061738
0.00481423
0.00407435
0.0036935
0.0104666
0.0110427
0.0114086
0.0120736
0.0108175
0.00746484
0.00565386
0.00456772
0.00394614
0.00363938
0.0104883
0.0110897
0.0114987
0.012132
0.0101368
0.0068348
0.00541095
0.00469126
0.00435096
0.00413025
0.0103869
0.0110924
0.0110838
0.0113527
0.00908774
0.00652436
0.00556575
0.0049982
0.00472461
0.0044786
0.00931625
0.00912923
0.00889521
0.00860551
0.00829325
0.00799692
0.00721253
0.00640962
0.00694178
0.0069335
0.00911097
0.00901272
0.00876145
0.00842093
0.00806323
0.00767712
0.00678411
0.00625437
0.00667811
0.00661806
0.0087217
0.00861731
0.00835721
0.0080543
0.00772474
0.00729338
0.00644907
0.00592493
0.00648179
0.00656686
0.00850732
0.00844096
0.00816721
0.00788023
0.00755744
0.00700408
0.0061313
0.00561669
0.00599442
0.00633378
0.00824604
0.00811671
0.00779198
0.00764013
0.00729682
0.00654595
0.00572062
0.00537068
0.00550667
0.00575124
0.00804938
0.007853
0.00760936
0.00752958
0.00708123
0.00600413
0.0053792
0.00510288
0.00505447
0.00508124
0.00779662
0.00745456
0.00729579
0.00736095
0.00660431
0.00567317
0.00514032
0.00483073
0.00469572
0.00457891
0.00751859
0.00713028
0.00701379
0.00707629
0.00638444
0.00545426
0.00494949
0.00455692
0.00433542
0.00417227
0.00720321
0.0067243
0.00655842
0.00676148
0.00621958
0.00524359
0.00479657
0.0044421
0.00425007
0.00400018
0.00693993
0.00639165
0.00634271
0.00649918
0.00588114
0.00515508
0.00468935
0.00433154
0.00406132
0.00362705
0.00722408
0.0078847
0.0079495
0.00787862
0.00774719
0.00805756
0.00843667
0.00978825
0.0101948
0.00729473
0.00693566
0.00767034
0.00787533
0.00778034
0.00746997
0.00761793
0.0079687
0.00868487
0.0102638
0.00938859
0.00672546
0.00754752
0.0077021
0.0076047
0.00725348
0.0072291
0.00746423
0.00790972
0.009428
0.00987005
0.00662801
0.00750453
0.00762528
0.00749001
0.00703849
0.00679745
0.00698801
0.00743871
0.00861112
0.00965237
0.00658563
0.00750379
0.00748622
0.00726498
0.00671499
0.00636017
0.0065496
0.0070569
0.008332
0.00958194
0.00704984
0.00747787
0.00737311
0.00697879
0.00632465
0.00596317
0.00615012
0.00674401
0.00842761
0.00883845
0.0072824
0.00732398
0.00711967
0.00650403
0.00588303
0.00554462
0.00574152
0.00651606
0.00849422
0.00726861
0.00734638
0.00719548
0.00680206
0.00602896
0.00541964
0.00511778
0.00529755
0.00608208
0.00834084
0.00787379
0.00716487
0.00689105
0.00634972
0.00552131
0.00489584
0.00465277
0.00478653
0.00529594
0.00730854
0.00804485
0.00699268
0.00668882
0.00593664
0.00497389
0.00440864
0.0042521
0.00435783
0.00473484
0.00622653
0.00626674
0.00594645
0.00734619
0.00932467
0.0102794
0.0105937
0.0104398
0.00865506
0.00801254
0.0078164
0.00681288
0.00580414
0.00624702
0.00730529
0.00839462
0.0101537
0.0109502
0.0105154
0.00754599
0.00684605
0.00638698
0.00522917
0.00582877
0.00663154
0.00746284
0.00821319
0.010217
0.0117013
0.00993144
0.00698303
0.00630782
0.00497645
0.00544865
0.00634505
0.00713245
0.00764607
0.00835126
0.0105158
0.0135769
0.00792681
0.00658435
0.00483184
0.00533112
0.00626969
0.0070525
0.00746698
0.00787238
0.00879931
0.0124174
0.0109178
0.00728926
0.00477476
0.00545386
0.00661066
0.0073455
0.00746371
0.0076971
0.00826231
0.0102983
0.0121015
0.00900013
0.00495513
0.00596657
0.00710881
0.0076098
0.00776995
0.00770854
0.00792812
0.00888253
0.0118665
0.00937217
0.00562891
0.00678267
0.00785724
0.00824612
0.00812335
0.00773222
0.00778734
0.00829723
0.011176
0.0105938
0.00673086
0.00808512
0.00870095
0.00855953
0.00824169
0.00758243
0.00756867
0.00786092
0.00954657
0.0105417
0.00828327
0.00918467
0.00908734
0.00864173
0.00792963
0.00716032
0.00714105
0.00733259
0.00798734
0.00753787
0.00430335
0.00358917
0.00337541
0.00351033
0.00361099
0.00382892
0.0041187
0.00419088
0.00422054
0.00456
0.00412246
0.00361341
0.00369392
0.00418592
0.00457632
0.00472609
0.00472539
0.00471948
0.00487004
0.00517795
0.00394062
0.00393215
0.00480775
0.00531946
0.00550263
0.00561646
0.00575343
0.00603723
0.00675768
0.00737612
0.00428321
0.00502446
0.00594889
0.00625463
0.00637109
0.00646541
0.00666171
0.00697508
0.00728768
0.00738423
0.0050285
0.00600313
0.00659941
0.00680661
0.00687773
0.00689497
0.00701081
0.00712565
0.00713971
0.00650607
0.00537806
0.00635676
0.00694037
0.00703772
0.00704342
0.00703061
0.00704183
0.00705657
0.00675337
0.00629334
0.00561235
0.00619408
0.00706656
0.00725728
0.00717967
0.0070822
0.00701272
0.00689115
0.0066307
0.00629011
0.00569848
0.00599071
0.00687647
0.00737171
0.00746803
0.00720934
0.00707915
0.00692525
0.00656762
0.00618416
0.00553577
0.00583489
0.00629268
0.00715268
0.00753099
0.00750855
0.00738042
0.00716119
0.00661498
0.00653371
0.00529147
0.00574715
0.00610461
0.00666025
0.00728738
0.00753543
0.00776287
0.0076618
0.00692764
0.00648367
0.00311254
0.00298765
0.00288788
0.00281128
0.00294442
0.00337921
0.0038866
0.00428753
0.00467826
0.00478103
0.00321496
0.00303085
0.00295167
0.0029203
0.00304024
0.00348913
0.00412019
0.00450493
0.00465714
0.0047392
0.00327899
0.00310588
0.00300112
0.00300049
0.00312749
0.00354808
0.00423644
0.00468361
0.00489502
0.00525117
0.00335908
0.00323567
0.00310863
0.00308981
0.00321768
0.00360351
0.00434826
0.00491819
0.00520571
0.00560581
0.00338662
0.00331383
0.00324858
0.00323612
0.00331577
0.00363185
0.00436689
0.00504843
0.00530648
0.00556397
0.00339955
0.0033478
0.00333165
0.00333704
0.00342836
0.00364589
0.00431806
0.00506935
0.00530259
0.00549042
0.00343769
0.00336019
0.00338074
0.00344539
0.00351681
0.00367081
0.00413791
0.00502715
0.00527621
0.00555592
0.00352283
0.00342381
0.0034067
0.00348716
0.00359128
0.00372182
0.00395644
0.00475615
0.00517208
0.00551822
0.00344604
0.00341436
0.00342686
0.00357296
0.00372259
0.00385066
0.00396175
0.00420818
0.00465145
0.00515597
0.0035122
0.0035583
0.00376056
0.00404866
0.00435304
0.00459929
0.00457151
0.00446162
0.00463655
0.00482009
0.00329712
0.00326318
0.0030439
0.00273949
0.00261199
0.00256319
0.00257171
0.0026044
0.00256628
0.00249405
0.00321581
0.00328479
0.00314904
0.00295125
0.00281625
0.00265092
0.0024449
0.00240753
0.00224513
0.00217458
0.00308827
0.0032042
0.00311424
0.00294138
0.0028153
0.00268303
0.00236196
0.00227904
0.00218368
0.00215663
0.00269186
0.00292145
0.00297693
0.00285611
0.00269579
0.00264688
0.00239168
0.00228678
0.0021855
0.00216265
0.00261945
0.00256623
0.00267287
0.00270532
0.00264664
0.00261233
0.00252529
0.00232699
0.00220275
0.00220933
0.00261547
0.00245457
0.00245105
0.00246883
0.00257738
0.00257001
0.00255539
0.00246158
0.00227609
0.00223411
0.00258038
0.00242617
0.00241418
0.00241841
0.00237169
0.00234577
0.00233539
0.00242761
0.00233176
0.00225634
0.00252406
0.00235385
0.00218324
0.00206595
0.00203664
0.00202433
0.00212785
0.00234502
0.00228438
0.00222964
0.00226547
0.00210729
0.00203827
0.00201814
0.00204661
0.00205153
0.00216048
0.00228196
0.00237263
0.00232589
0.001999
0.00195432
0.00193282
0.00194974
0.00203606
0.00211576
0.00213178
0.00242426
0.00261457
0.00227219
0.00100158
0.00101393
0.00105121
0.00108463
0.00110017
0.00112243
0.00113308
0.00113667
0.00112209
0.00110994
0.000996108
0.00101452
0.00103921
0.00104774
0.00107104
0.00111744
0.00113869
0.00115358
0.00117512
0.00118328
0.000972649
0.000982105
0.00099273
0.000985513
0.000999171
0.00104297
0.0010995
0.00112332
0.00113756
0.00114291
0.000975062
0.00097518
0.000976045
0.000975299
0.000975536
0.000983693
0.00102599
0.00103769
0.00104076
0.00103074
0.00101091
0.0009958
0.000984332
0.000978539
0.000976381
0.000978283
0.000989599
0.00101533
0.00101835
0.00100937
0.00103124
0.00102334
0.00101363
0.00100249
0.000992162
0.000982992
0.000985093
0.00099144
0.00100043
0.00100038
0.00102608
0.00102239
0.00101713
0.00101048
0.00100574
0.000997307
0.000990322
0.000991633
0.000994601
0.000998034
0.00098985
0.00100342
0.00101143
0.00100975
0.00100658
0.00100134
0.00099634
0.000995862
0.00099482
0.000993491
0.000979404
0.00100236
0.00100744
0.00100718
0.00100514
0.00100081
0.000997499
0.000990642
0.000975765
0.000986063
0.000973721
0.00099621
0.000999106
0.000999369
0.000998914
0.000997136
0.000993509
0.000991238
0.00100372
0.00101965
0.00085179
0.000852087
0.000877514
0.000886786
0.000917131
0.000926202
0.000915634
0.000911038
0.000910504
0.000921354
0.00087613
0.000867208
0.000876329
0.000878661
0.000897177
0.000891405
0.000900459
0.000899784
0.000903794
0.000932856
0.000943903
0.000907003
0.000889138
0.000885326
0.000897432
0.000909371
0.000905242
0.000901551
0.000911778
0.000935979
0.000961646
0.000974559
0.000962417
0.000944009
0.000932378
0.000934598
0.00092386
0.000920239
0.000915441
0.000923499
0.000868876
0.00089267
0.000939767
0.000969597
0.000988162
0.000990709
0.00095803
0.000934965
0.000921959
0.000911491
0.000942885
0.000941774
0.000945615
0.000960592
0.000988512
0.00101195
0.00101408
0.0009799
0.000942892
0.000919762
0.000997241
0.00100051
0.000995075
0.000983255
0.000990125
0.0010098
0.00102714
0.00102367
0.000979831
0.000964318
0.000987612
0.00099356
0.000995153
0.000993627
0.000996875
0.0010112
0.00103544
0.00103239
0.00098972
0.000975582
0.00100026
0.00100525
0.000998241
0.000998598
0.00100357
0.0010243
0.00104459
0.000997325
0.000986972
0.000968686
0.000970245
0.00101417
0.00100857
0.00101272
0.00102363
0.00104091
0.000993641
0.0009798
0.000969551
0.000945527
0.000848966
0.000879174
0.000985505
0.000981781
0.000999221
0.0011014
0.00117767
0.00118907
0.00118255
0.00115878
0.00093815
0.000939826
0.000940259
0.000907117
0.000923343
0.000980148
0.00101137
0.00101062
0.000989928
0.000965108
0.00094067
0.000919035
0.000895456
0.000895564
0.000918986
0.000943782
0.000951631
0.000942598
0.000919104
0.000890603
0.000942056
0.000911176
0.000904341
0.000910321
0.000934807
0.000942922
0.000942622
0.000931867
0.000904741
0.000864848
0.000966621
0.000931567
0.000925097
0.000927628
0.000948534
0.000957633
0.000958116
0.00094684
0.000910259
0.000862105
0.00101405
0.000956649
0.000943934
0.000942114
0.000952807
0.000968177
0.000969243
0.000960848
0.000929754
0.000886623
0.0010478
0.00100125
0.000956456
0.000951819
0.000961688
0.000979094
0.000981414
0.000981503
0.000970502
0.000938604
0.00108002
0.00101294
0.000971132
0.00096526
0.000976191
0.00100712
0.00102947
0.00103761
0.00101958
0.000965196
0.00107663
0.00100675
0.000966061
0.000961182
0.000980666
0.00103048
0.00105081
0.00105299
0.00102124
0.000965585
0.00105047
0.000983724
0.000951737
0.00095032
0.000974263
0.00101741
0.001031
0.00101785
0.00096266
0.000919718
0.00345218
0.0033465
0.00330255
0.00330267
0.00330283
0.00327925
0.00324267
0.00323217
0.00323976
0.0033027
0.00344628
0.00338321
0.00329011
0.00324277
0.00321987
0.00319338
0.0031557
0.00314761
0.00315062
0.00316155
0.00340859
0.00340009
0.0033508
0.00326393
0.00321996
0.00318019
0.00313801
0.00310301
0.00310024
0.003106
0.0033501
0.00336487
0.00336223
0.00333472
0.00326204
0.00320395
0.00315321
0.00310805
0.00308862
0.00308966
0.00329287
0.00332732
0.00334835
0.0033497
0.00333386
0.00327582
0.0032112
0.00314576
0.00310626
0.00309284
0.00329703
0.0033106
0.0033496
0.00336327
0.00336282
0.00334632
0.00328957
0.00322644
0.00316171
0.00311582
0.00334547
0.00334609
0.00336436
0.00339408
0.00340908
0.00340649
0.00338083
0.00331309
0.00323965
0.00317696
0.00345642
0.00342244
0.00342445
0.00344155
0.00346215
0.00346149
0.00344396
0.00338449
0.00330796
0.0032313
0.00360849
0.00353289
0.00351547
0.00351406
0.00351049
0.00349906
0.00347496
0.00341717
0.00335066
0.00327377
0.0038203
0.00367323
0.00362251
0.00359596
0.00357258
0.00354766
0.00350173
0.00343855
0.00337036
0.00330698
0.00323784
0.00322052
0.00318467
0.00319406
0.00321493
0.00321489
0.0031907
0.00318737
0.00319283
0.00324367
0.00322756
0.00322181
0.00316951
0.0031233
0.00311124
0.00309986
0.00308091
0.00308187
0.00309176
0.00309806
0.00317865
0.00321944
0.00321022
0.00315263
0.00310912
0.00308232
0.00305594
0.00303621
0.0030355
0.0030428
0.00309507
0.00317494
0.00321307
0.00321109
0.00317209
0.00311323
0.00307503
0.00304465
0.00303295
0.00303824
0.00304163
0.00311863
0.00319191
0.00322851
0.00323107
0.00321149
0.00315483
0.00309663
0.00306034
0.00305336
0.00306496
0.00310051
0.00318877
0.00325242
0.00327936
0.00328021
0.00326389
0.00321592
0.00315599
0.00311422
0.00314548
0.00315919
0.00321282
0.00329344
0.00334385
0.00335478
0.00334928
0.00331951
0.00326436
0.003199
0.00326999
0.00326822
0.00328011
0.00332597
0.00338811
0.00341944
0.00341936
0.00340295
0.0033562
0.00327092
0.00343466
0.00339765
0.00338297
0.00338964
0.00341956
0.00344863
0.00344872
0.0034341
0.0033954
0.003321
0.00365996
0.00356671
0.00349018
0.00347644
0.00347914
0.00347808
0.00346855
0.00343784
0.00339284
0.00333973
0.00300656
0.0030244
0.00303286
0.00304793
0.00308357
0.00310483
0.00310126
0.00310527
0.00311844
0.00316076
0.00299575
0.00301281
0.00300186
0.00297608
0.00297744
0.0029805
0.00298195
0.0029882
0.00300562
0.00302149
0.00295575
0.00300994
0.0030153
0.0029899
0.00296836
0.00296545
0.00296042
0.00295924
0.00296328
0.00297829
0.00286654
0.00298477
0.00303589
0.00304117
0.00302612
0.00300202
0.00298532
0.00297467
0.00297505
0.00298514
0.00282198
0.00291554
0.0030439
0.00310449
0.00311549
0.00310993
0.00309218
0.00305753
0.00303183
0.00303379
0.00285956
0.00290671
0.00302975
0.00314602
0.00321075
0.00322686
0.00322343
0.00320872
0.00317172
0.00313516
0.00294632
0.00297902
0.00307225
0.00319424
0.00328442
0.00332979
0.0033414
0.00333303
0.00330909
0.0032507
0.00308463
0.00310622
0.00316304
0.00324124
0.00332381
0.00338853
0.00341967
0.00341862
0.00340532
0.0033551
0.00325447
0.00326316
0.00327373
0.00329435
0.00334466
0.00340809
0.00343858
0.003438
0.00342726
0.00339455
0.00349792
0.00346437
0.00339624
0.00336076
0.00336585
0.00339614
0.00342127
0.00341739
0.00339335
0.00336144
0.00277291
0.00282574
0.00284853
0.00287349
0.00291633
0.00294139
0.00296077
0.00298029
0.00302689
0.00307242
0.00277065
0.00280407
0.00281027
0.00281056
0.00282058