/*--------------------------------*- C++ -*----------------------------------*\
  =========                 |
  \\      /  F ield         | OpenFOAM: The Open Source CFD Toolbox
   \\    /   O peration     | Website:  https://openfoam.org
    \\  /    A nd           | Version:  9
     \\/     M anipulation  |
\*---------------------------------------------------------------------------*/
FoamFile
{
    format      ascii;
    class       volScalarField;
    location    "79";
    object      f6.gas;
}
// * * * * * * * * * * * * * * * * * * * * * * * * * * * * * * * * * * * * * //

dimensions      [0 0 0 0 0 0 0];

internalField   nonuniform List<scalar> 
137980
(
0.0029824
0.00312684
0.00348064
0.00401719
0.00457515
0.00487985
0.00495964
0.0049804
0.00507781
0.00518124
0.00285382
0.00297835
0.00325767
0.0037306
0.00440834
0.00491299
0.00502519
0.00503741
0.0050814
0.00516463
0.00281573
0.00289886
0.00308268
0.00341315
0.00393097
0.00465105
0.00504374
0.00508261
0.0050163
0.00488533
0.00270793
0.00276081
0.00288039
0.00311273
0.00348285
0.00393913
0.00451199
0.00489
0.00492149
0.00470175
0.00261228
0.00264346
0.00271689
0.00286481
0.00310607
0.00341925
0.00377917
0.00414758
0.00437053
0.00434145
0.00252352
0.00253305
0.00257086
0.0026671
0.00280737
0.00302502
0.00325221
0.00348586
0.00365936
0.0037044
0.00246701
0.00245548
0.00246475
0.00251606
0.00260164
0.00272577
0.00289224
0.00305919
0.00317984
0.00325341
0.00244829
0.0024216
0.00241924
0.00243295
0.00249288
0.00256386
0.00265322
0.00277425
0.00286542
0.0029459
0.00246078
0.00242138
0.00240945
0.00241109
0.00243573
0.00250626
0.00257906
0.00264911
0.00269574
0.00275709
0.00253204
0.0024639
0.00244412
0.00243863
0.00244297
0.00247683
0.00255397
0.00262836
0.00267252
0.00274177
0.00282322
0.00301945
0.00338397
0.00389045
0.00444954
0.00480856
0.00493701
0.00501233
0.00521155
0.00544448
0.00270787
0.00288701
0.00317395
0.00369522
0.0044245
0.00487985
0.00500891
0.00505599
0.00519564
0.00538986
0.00267202
0.00281492
0.00304037
0.00343408
0.0040275
0.00478798
0.00506416
0.00511454
0.00514096
0.00524274
0.00257711
0.00266627
0.00281929
0.00312846
0.00355686
0.00415962
0.00483398
0.00503978
0.00506381
0.00491114
0.00248654
0.0025438
0.00264617
0.00285685
0.00315134
0.00355313
0.00406536
0.00459599
0.00475834
0.00467472
0.00241253
0.00243815
0.00250042
0.00262013
0.00282882
0.00308747
0.00340468
0.00374375
0.00399754
0.00406192
0.00236698
0.00236257
0.00239669
0.00244581
0.00257975
0.00275153
0.00295141
0.00317257
0.00335001
0.00345695
0.00236191
0.00232875
0.00233862
0.00237106
0.00240986
0.00252751
0.00266546
0.00280373
0.00291778
0.00301925
0.00239268
0.00233617
0.00232341
0.0023446
0.00236665
0.00239968
0.00248768
0.00258232
0.00265321
0.00274064
0.00246917
0.00238965
0.0023503
0.00235382
0.00237666
0.0024039
0.00244023
0.00249131
0.00253941
0.00262919
0.00270583
0.00293387
0.00329801
0.00379686
0.00439544
0.00482144
0.0050311
0.00516812
0.0055198
0.00645054
0.00270734
0.00287931
0.00317638
0.0037267
0.00445635
0.00493498
0.00516847
0.00553315
0.00598426
0.00660149
0.0025782
0.00277403
0.00306827
0.00352016
0.00423591
0.00495469
0.00524801
0.00552109
0.00606457
0.00658212
0.00249398
0.00261401
0.00284615
0.00321828
0.00379064
0.0045913
0.00518508
0.00545402
0.00584921
0.00612632
0.00240294
0.0024787
0.00265708
0.00292192
0.00333847
0.00393844
0.0047206
0.00522356
0.00545431
0.00550898
0.00233953
0.00236559
0.00246747
0.00265988
0.00294923
0.00335182
0.00389321
0.0044895
0.00481697
0.00493259
0.00229792
0.00229229
0.0023223
0.00245824
0.00263708
0.00290384
0.00323818
0.0036338
0.00395979
0.00415658
0.00227839
0.00225507
0.00225552
0.00230732
0.00243072
0.00258868
0.00279731
0.00302566
0.00322569
0.00340743
0.00227061
0.0022448
0.00223865
0.00223724
0.00230467
0.00241501
0.0025328
0.00266274
0.00276006
0.00287073
0.00231238
0.00226304
0.00225607
0.00225459
0.00226096
0.00231753
0.00241492
0.00250538
0.0025622
0.00264453
0.00271476
0.00292753
0.00321715
0.00366483
0.00424439
0.00475019
0.00500733
0.0049164
0.00540056
0.0058367
0.00274111
0.0028913
0.00317447
0.00370473
0.00441448
0.00507368
0.00538611
0.00551099
0.0058644
0.00641577
0.00256735
0.00278476
0.00312589
0.00365581
0.00443252
0.00524563
0.0056974
0.00605847
0.00653625
0.00688151
0.00249258
0.00263201
0.00292174
0.00341704
0.00419846
0.00521021
0.00595316
0.00639267
0.00699143
0.00723588
0.00237171
0.00248597
0.00272062
0.00311541
0.00378666
0.00479654
0.00586749
0.00644328
0.00699757
0.00732502
0.00226638
0.00233339
0.00251363
0.00281575
0.0032998
0.004083
0.00529464
0.00623296
0.00683298
0.00719568
0.00219673
0.00221886
0.00234358
0.00255113
0.00289085
0.00342119
0.00418366
0.00532178
0.00620989
0.00667796
0.00214894
0.0021466
0.00221236
0.00235092
0.00257936
0.00291756
0.00338957
0.00397342
0.00459109
0.00518066
0.00213499
0.00211632
0.00213467
0.00223425
0.0023699
0.00259316
0.00287195
0.00316773
0.0033922
0.00367692
0.00220416
0.00213026
0.00212438
0.00216676
0.00227005
0.00240041
0.00259993
0.0027779
0.00286447
0.00284651
0.00274322
0.00294434
0.00316626
0.00349812
0.0039477
0.0045402
0.0048853
0.00504759
0.00574764
0.00545918
0.00273912
0.00289192
0.00315919
0.00364326
0.00430131
0.00495292
0.00536345
0.00558888
0.00618074
0.00608754
0.00252706
0.00278975
0.00317664
0.00375702
0.00457279
0.0053968
0.00581941
0.00621544
0.00674416
0.00681509
0.00245323
0.00265052
0.00306618
0.00373349
0.00468349
0.00569899
0.0063344
0.00672304
0.00735635
0.00757367
0.0022973
0.00251673
0.00288352
0.00353296
0.00454608
0.00577799
0.00673712
0.00723568
0.00771161
0.00790175
0.00220033
0.00235211
0.00264702
0.00320346
0.00415959
0.00552591
0.00676117
0.00754718
0.00807088
0.0082556
0.00213558
0.0022137
0.00242784
0.00282965
0.00359821
0.00485518
0.00642277
0.00750429
0.00829934
0.00887748
0.0021079
0.00211741
0.0022567
0.00255186
0.0030876
0.00398032
0.00538089
0.00693936
0.0079562
0.00866256
0.00213574
0.00209011
0.00214589
0.00234108
0.00272049
0.00333077
0.00418383
0.0052669
0.00621442
0.00679136
0.00222903
0.00212991
0.00211872
0.00220824
0.00245373
0.00293002
0.00358997
0.00411421
0.00404044
0.00369774
0.00282786
0.00301807
0.00313075
0.00330957
0.00361925
0.00417253
0.00499738
0.005667
0.00533306
0.00534661
0.0027056
0.00287739
0.00314232
0.00356199
0.00417744
0.00496822
0.00555685
0.00612063
0.0062874
0.00608316
0.00246588
0.00280429
0.00321927
0.00382546
0.00468358
0.0055946
0.00621082
0.00676972
0.00726304
0.00706221
0.00238458
0.00267937
0.00316616
0.0039087
0.00496203
0.00610643
0.0069165
0.00761335
0.0082719
0.0080752
0.0023001
0.00257474
0.00304263
0.00385005
0.00505909
0.00646051
0.00754148
0.00833358
0.00895357
0.00895899
0.00223194
0.00241641
0.00286097
0.00367732
0.00499612
0.00663544
0.00804418
0.00915935
0.0097249
0.00980838
0.00220859
0.00227952
0.00264849
0.00343417
0.00477786
0.00661871
0.00853227
0.00963328
0.0101828
0.0102982
0.00229681
0.00221352
0.00244252
0.00313277
0.0044041
0.00637259
0.00872494
0.010564
0.0113754
0.0117028
0.00246653
0.00228542
0.00229923
0.00279762
0.00388834
0.00566343
0.0082571
0.0103706
0.0115529
0.0129796
0.00254799
0.00234084
0.00226989
0.00253861
0.00336878
0.00495236
0.00703831
0.00891994
0.00904713
0.00830256
0.00301317
0.0030517
0.0031161
0.00327034
0.00356835
0.00435126
0.00654849
0.00626502
0.00520939
0.00770237
0.00269789
0.00292077
0.00321249
0.00367969
0.00442093
0.00595902
0.00758941
0.00705897
0.00584939
0.00786359
0.00252156
0.00291464
0.00344227
0.00420644
0.00539685
0.00744469
0.00841515
0.00803819
0.00669214
0.00812835
0.00246519
0.00286829
0.00356864
0.00464198
0.00630675
0.0085296
0.00924996
0.00905905
0.00764191
0.00853774
0.00245151
0.00285739
0.00365488
0.00500713
0.0072414
0.00943921
0.0100828
0.0100462
0.00879799
0.00908124
0.00248517
0.00279259
0.00369168
0.00536508
0.00816666
0.0102765
0.0109704
0.0110385
0.0100485
0.00989296
0.00260472
0.00274381
0.00367253
0.00571813
0.00920135
0.0112319
0.0119651
0.0121196
0.0112418
0.0108136
0.00291195
0.00273003
0.00356201
0.00590572
0.00989742
0.0121632
0.0130318
0.0132693
0.0124913
0.0119834
0.00319015
0.00295006
0.00344338
0.00589079
0.0105039
0.012855
0.0138753
0.0142497
0.0138153
0.0135731
0.00333961
0.00304869
0.00346298
0.00566271
0.010443
0.0134787
0.0158711
0.017
0.0174552
0.0170234
0.00321056
0.00314372
0.00322656
0.00345846
0.00382682
0.00569006
0.00546075
0.00511187
0.00876716
0.0249108
0.0028653
0.0032259
0.0038567
0.00500112
0.00621599
0.00683069
0.00646696
0.00648347
0.0130347
0.0254961
0.00296166
0.00373265
0.00527433
0.00692622
0.00763261
0.00778642
0.00750289
0.00826572
0.0173603
0.0250666
0.00307581
0.00418656
0.00654269
0.00815006
0.00870265
0.00873732
0.00863172
0.0102484
0.0196969
0.023625
0.00327507
0.00459765
0.00744098
0.0091062
0.00964767
0.00971643
0.00968963
0.0117837
0.0204203
0.0233146
0.00351386
0.00486191
0.00806737
0.00991681
0.0105312
0.0106847
0.0107233
0.0126215
0.0203123
0.0228684
0.00376256
0.00495841
0.00851441
0.0106656
0.0113745
0.0115751
0.0115213
0.0128068
0.0197391
0.0222813
0.00410162
0.00487664
0.0086512
0.0112617
0.0121666
0.0125059
0.0125069
0.0131967
0.0189332
0.0210246
0.004499
0.00495195
0.00867377
0.0117784
0.0129493
0.01331
0.0133091
0.0136026
0.0175063
0.0203824
0.00552261
0.00538514
0.0090082
0.0122604
0.0134755
0.0141192
0.0144219
0.0144295
0.0165939
0.0191322
0.00344024
0.00346374
0.00358612
0.00368028
0.0040731
0.00490495
0.00520395
0.00960965
0.0290927
0.0305723
0.00349146
0.00417555
0.00455987
0.00483827
0.00558939
0.00610212
0.00762152
0.0191968
0.0276341
0.0211989
0.00460269
0.00572207
0.00631536
0.00662846
0.00722792
0.00821398
0.0131172
0.0221733
0.0229486
0.0124741
0.00545213
0.00704436
0.00769083
0.00800961
0.00874657
0.0110685
0.0185716
0.0215531
0.0163763
0.00916801
0.00639849
0.00812058
0.00886941
0.00937294
0.0106183
0.0144482
0.0195871
0.0200943
0.0122164
0.00772008
0.00714645
0.00907148
0.00991447
0.0106035
0.0123418
0.0166333
0.0194849
0.0182114
0.0103585
0.00743582
0.00769487
0.00969246
0.0106098
0.011651
0.0136658
0.0176502
0.019231
0.0170026
0.00994286
0.00758189
0.00807076
0.0102172
0.0114236
0.012572
0.014633
0.0179735
0.0189073
0.0164467
0.0101249
0.00805233
0.00817818
0.0102917
0.0117579
0.0131466
0.0152134
0.0180559
0.0188159
0.016584
0.0105644
0.00855115
0.00850847
0.0105826
0.0123554
0.0137918
0.0155985
0.0180228
0.01873
0.0172894
0.0118107
0.0096457
0.00439285
0.00438974
0.00425934
0.00433074
0.0050693
0.00673119
0.0148589
0.0278005
0.0270511
0.0251499
0.00455704
0.00486515
0.00487158
0.00537752
0.0069843
0.0112348
0.0236543
0.0269855
0.0235189
0.019617
0.00534855
0.00589052
0.00612861
0.00708303
0.010257
0.0200596
0.0243022
0.0239689
0.0159061
0.0127564
0.00665443
0.00721766
0.00781614
0.00974062
0.0158409
0.0225244
0.0233339
0.0177967
0.0115153
0.00920339
0.00768807
0.00834883
0.00947578
0.0126963
0.0197808
0.0223614
0.0211807
0.0128918
0.00919749
0.00758552
0.0088656
0.00971343
0.0113896
0.0155613
0.020939
0.0217984
0.0174873
0.0104467
0.00793156
0.0067913
0.00955626
0.01059
0.012649
0.0174191
0.020977
0.0210307
0.0153247
0.00927245
0.00727132
0.00644795
0.0103462
0.0116116
0.0139477
0.0185718
0.020904
0.0200419
0.0135105
0.00859276
0.00693312
0.00632529
0.0106915
0.0119202
0.0142706
0.0187965
0.0207101
0.0197901
0.0134893
0.0086119
0.00686874
0.00632851
0.0110089
0.0124967
0.014965
0.0190763
0.0206297
0.0199945
0.01442
0.00898714
0.0069244
0.0064405
0.00510926
0.00507101
0.00498474
0.00536014
0.00655752
0.00912771
0.0198497
0.0223149
0.0208622
0.0214382
0.00511627
0.00532046
0.0054265
0.00627046
0.00858262
0.0135539
0.0223945
0.0232882
0.0225232
0.0226136
0.0055118
0.00591839
0.00633333
0.00774561
0.011249
0.0198155
0.0234019
0.0232194
0.0220636
0.0215148
0.00665697
0.00712813
0.00771701
0.00994948
0.0164183
0.0225538
0.0236447
0.0226619
0.0205528
0.0173441
0.00780925
0.0081126
0.00938947
0.0133041
0.02068
0.02338
0.0234654
0.0213705
0.0173981
0.0136048
0.00923407
0.00977633
0.0117773
0.0170395
0.0225041
0.0235485
0.0226599
0.0188055
0.0145623
0.0111641
0.0101138
0.0107606
0.013565
0.0200977
0.023204
0.0235058
0.0218243
0.0170814
0.0129464
0.0101135
0.0108543
0.0121961
0.0157792
0.0216888
0.0234583
0.023343
0.0204734
0.0157129
0.0120592
0.00919452
0.0113747
0.0125883
0.016646
0.0223011
0.023655
0.0233947
0.0203154
0.015452
0.0113987
0.00899023
0.0117439
0.013467
0.0178128
0.02291
0.0238564
0.023548
0.0210818
0.0160333
0.0114788
0.00836864
0.00628954
0.00643946
0.00669378
0.00756286
0.00833734
0.0111014
0.0143876
0.0132213
0.0132452
0.0138403
0.00665096
0.00696713
0.00746902
0.00868193
0.0100158
0.0128022
0.0150534
0.0140207
0.0137696
0.014068
0.00794545
0.0079815
0.00872583
0.0101622
0.0120602
0.0147086
0.0157884
0.0143776
0.0140627
0.0145781
0.0101474
0.00985924
0.0105782
0.0123092
0.0147722
0.0159541
0.0160275
0.0145106
0.0144851
0.0153344
0.0130775
0.0122501
0.013016
0.0150295
0.0165027
0.0168225
0.0159894
0.0148048
0.0149763
0.0160975
0.0152145
0.014863
0.0156367
0.0170387
0.0179014
0.0172684
0.0161513
0.0154547
0.0160449
0.0176477
0.0162324
0.0161414
0.0172061
0.0187787
0.0191151
0.0181086
0.016685
0.016527
0.0171509
0.0195064
0.0177134
0.0177359
0.0188897
0.0206519
0.02064
0.0192254
0.0180587
0.0180652
0.0190903
0.0200703
0.0180134
0.0181795
0.0193147
0.0216053
0.0221881
0.0215388
0.0195992
0.0195835
0.0199718
0.021227
0.0183522
0.0189509
0.0203155
0.0225607
0.0234973
0.0234339
0.0227984
0.0211834
0.0218709
0.0206288
0.0153506
0.0175949
0.0182488
0.0190974
0.0193952
0.019398
0.0165059
0.0148089
0.0146716
0.0146192
0.0166802
0.0168047
0.0177751
0.019106
0.0199507
0.0206745
0.0206824
0.0188211
0.0175193
0.0168054
0.0171464
0.0171374
0.0176953
0.0188125
0.0197105
0.0207372
0.0220618
0.0220043
0.0209384
0.0187448
0.01752
0.0172786
0.0176005
0.0186707
0.0193511
0.0201859
0.0215799
0.0232481
0.023032
0.0217446
0.016591
0.0162767
0.0166314
0.0178057
0.0189915
0.0199881
0.0208009
0.0230012
0.0241401
0.0233311
0.0148886
0.0152881
0.0162537
0.0175958
0.0185906
0.0194311
0.0202839
0.0223537
0.0247441
0.0232808
0.0141842
0.0149786
0.0162154
0.0175926
0.018438
0.0192338
0.0199407
0.0213874
0.0249636
0.0235238
0.0138143
0.0149305
0.0162762
0.0176288
0.0183572
0.0193435
0.0199241
0.021078
0.0248399
0.0240099
0.0137531
0.0152933
0.0166227
0.0179343
0.0188292
0.0206909
0.0208767
0.0213999
0.0244037
0.0250342
0.0145215
0.0163507
0.0177105
0.0189023
0.0216796
0.0240559
0.0238398
0.022497
0.0248457
0.0243075
0.014575
0.0146423
0.0143438
0.0142541
0.014302
0.0146129
0.0152682
0.015676
0.0157686
0.0160935
0.0132924
0.0129323
0.0128623
0.0129415
0.0132469
0.0138408
0.0144438
0.0149966
0.0153431
0.0160951
0.0125198
0.0121116
0.0120514
0.0122939
0.0128325
0.013477
0.0141019
0.0147067
0.0151061
0.0160044
0.0112137
0.0110968
0.0113736
0.0120645
0.0127229
0.0133903
0.0139933
0.0145964
0.0150264
0.01599
0.0104013
0.0107042
0.0112482
0.0121081
0.0129133
0.0138156
0.0143316
0.0146796
0.0150467
0.0160389
0.0100762
0.0106798
0.0114651
0.0128485
0.0141182
0.0152436
0.0157296
0.0156932
0.0156813
0.0167622
0.0101466
0.011197
0.0126653
0.0147088
0.0165084
0.0174296
0.0173242
0.017011
0.0163675
0.0172562
0.011343
0.0127019
0.0150497
0.0178968
0.018684
0.0184801
0.0179026
0.0173742
0.0167704
0.0174718
0.0125043
0.014379
0.0180316
0.0197417
0.019487
0.0188154
0.0177958
0.0169467
0.0166493
0.0182332
0.0129005
0.0159777
0.0196315
0.0205477
0.019724
0.0185927
0.0171282
0.0168596
0.0169918
0.0168426
0.0137825
0.0141134
0.0141037
0.0140633
0.01398
0.0138467
0.0136833
0.0135171
0.0130873
0.0109207
0.0136371
0.0139561
0.0139915
0.0139235
0.0137661
0.0134829
0.0133274
0.0131353
0.0125893
0.0113972
0.0135883
0.0139318
0.0139627
0.0138824
0.0136762
0.0133154
0.0130805
0.0127445
0.0117392
0.0107412
0.013571
0.0139476
0.0139829
0.0138878
0.013649
0.0132673
0.0128651
0.0120873
0.0104322
0.00926865
0.0136138
0.0140882
0.0141493
0.0140713
0.0138178
0.0132918
0.0122503
0.010313
0.00837876
0.00705668
0.0137337
0.0142148
0.0142961
0.0143731
0.0141325
0.0130642
0.0105821
0.00820782
0.00683654
0.0060762
0.0138025
0.0143513
0.0145284
0.0149754
0.0143464
0.0116826
0.00896556
0.00722738
0.00619976
0.00566017
0.0138478
0.014451
0.0147194
0.0153904
0.014201
0.0104454
0.00823447
0.0068584
0.00600114
0.00556783
0.0138412
0.0144844
0.0147853
0.0154326
0.0134807
0.00964035
0.00788324
0.00696259
0.00653288
0.0062099
0.0136628
0.0144538
0.0142412
0.0146038
0.0122636
0.00932049
0.00812495
0.00738556
0.00699223
0.00661546
0.0130551
0.0127506
0.0123442
0.0118915
0.0114278
0.0110189
0.00993658
0.00901596
0.00982573
0.00973475
0.0128045
0.0126179
0.0121731
0.0116335
0.0110982
0.0105583
0.00937153
0.00884206
0.00941131
0.00930538
0.0122803
0.0120743
0.0116113
0.0111094
0.010615
0.0100069
0.00897358
0.00839756
0.00914964
0.00925075
0.0119706
0.0118312
0.0113451
0.0108549
0.0103706
0.00963168
0.00860491
0.00802564
0.00852045
0.0089575
0.0116305
0.0113842
0.0108116
0.0104938
0.0100007
0.00908155
0.00814221
0.00773453
0.00791564
0.00821385
0.0113244
0.0109945
0.0105539
0.0103245
0.00973168
0.00851932
0.00775915
0.00741801
0.00735643
0.00735612
0.0110037
0.010475
0.010134
0.0100657
0.0092247
0.00814811
0.00747008
0.00708465
0.00687185
0.00667619
0.0106182
0.0100454
0.00980437
0.00976294
0.00900121
0.00789965
0.00723629
0.00676286
0.00642255
0.00617835
0.010221
0.00952539
0.00924353
0.00944681
0.00884126
0.00768637
0.0070922
0.00663629
0.00632406
0.00597606
0.00987608
0.00910399
0.00896679
0.00912478
0.00848461
0.00761558
0.0070169
0.00653465
0.00611872
0.00555492
0.0105931
0.0114352
0.0113815
0.0112495
0.0110193
0.0114336
0.0119366
0.0136484
0.0140537
0.0104241
0.0102789
0.0111466
0.0113059
0.0111293
0.0106293
0.0108392
0.0113098
0.0123306
0.0141359
0.0130072
0.0100049
0.0109671
0.0110687
0.0108873
0.0103215
0.0103091
0.0106301
0.0112507
0.0132076
0.0135823
0.00989032
0.010885
0.010965
0.0107202
0.0100053
0.0097399
0.0100171
0.0106423
0.0122033
0.0132848
0.00984371
0.0108525
0.0107734
0.0103726
0.00956031
0.00914302
0.00942039
0.0101297
0.0118405
0.0131647
0.0103526
0.0107805
0.0105671
0.0099095
0.00907079
0.00861278
0.00888714
0.00972263
0.0119111
0.0123144
0.010591
0.0105482
0.0101638
0.00927836
0.00846399
0.00803597
0.00832373
0.00940545
0.0119775
0.0105067
0.0106245
0.0102997
0.00960881
0.00865771
0.00787054
0.00747444
0.0077305
0.00882339
0.0117803
0.0113162
0.0102962
0.00975355
0.00906919
0.00801844
0.00718145
0.00685414
0.0070408
0.00775582
0.010426
0.01145
0.00992387
0.00948603
0.00849028
0.00728453
0.00652367
0.00631511
0.00646049
0.0069932
0.00900739
0.009064
0.00891211
0.0108208
0.0133116
0.0144635
0.0148211
0.0146171
0.0122182
0.0113362
0.011029
0.00973166
0.00886128
0.00937978
0.01074
0.012143
0.0143629
0.0153259
0.0146875
0.0107953
0.00982633
0.00918047
0.00801233
0.00881293
0.00984579
0.0108819
0.011873
0.0145169
0.0162594
0.013884
0.0100585
0.00913662
0.00765522
0.00829404
0.00946178
0.0104314
0.0110963
0.0120658
0.0149322
0.0184381
0.0113806
0.00953498
0.00745563
0.00813422
0.00935857
0.0103183
0.0108305
0.0113881
0.0126295
0.0171438
0.0152598
0.010518
0.00737339
0.00831338
0.00979119
0.0106726
0.0108092
0.011102
0.0118803
0.0145746
0.0167414
0.0127898
0.00760528
0.0089815
0.0103907
0.0109915
0.011131
0.0110503
0.0113827
0.0127124
0.0164781
0.0132677
0.00850179
0.0100302
0.0113398
0.0116212
0.0114199
0.0109121
0.0110456
0.0118417
0.0156266
0.0148589
0.00994317
0.0116449
0.0121739
0.0118801
0.0114591
0.0106196
0.0106653
0.0111605
0.0136192
0.0147835
0.011942
0.0127178
0.0125128
0.0118556
0.010909
0.00992063
0.00997484
0.0103297
0.0113435
0.0107594
0.00666405
0.00559015
0.00525232
0.00541344
0.00556702
0.0059213
0.00638724
0.00650936
0.00655513
0.00703698
0.00640476
0.00564012
0.00573609
0.00649841
0.00709936
0.00728738
0.00726845
0.00722416
0.00739915
0.00776435
0.00613328
0.00611245
0.00738371
0.00811772
0.00836846
0.00846496
0.00856363
0.00887502
0.00961863
0.0102821
0.00662373
0.00768512
0.00891566
0.00929175
0.00940299
0.00943587
0.00955505
0.0098157
0.0101568
0.010264
0.00765272
0.00897938
0.00970968
0.00990561
0.00992079
0.00985368
0.00984763
0.00994379
0.00994634
0.009092
0.00818463
0.00948213
0.0100864
0.0101411
0.0100663
0.0099432
0.00985765
0.00984143
0.00943022
0.00880562
0.00850339
0.00930725
0.0103082
0.0104656
0.0102573
0.0100291
0.00983011
0.00960319
0.00921218
0.00881205
0.008548
0.00901724
0.0101617
0.0106936
0.0107147
0.0102557
0.00995229
0.00967953
0.00911432
0.00867568
0.00828334
0.00874103
0.00942213
0.010503
0.0109141
0.0107986
0.0104749
0.0101047
0.00920173
0.00917093
0.007936
0.00854373
0.00908026
0.00987043
0.0106478
0.0109393
0.0112205
0.0110156
0.00974748
0.00910463
0.00482916
0.0046273
0.00448023
0.00438924
0.0045966
0.00520852
0.00590042
0.00645673
0.00699741
0.00712586
0.00496489
0.00470901
0.00457148
0.00453969
0.00472878
0.00536823
0.00622017
0.00675856
0.00694051
0.00700466
0.00503435
0.00481351
0.00464547
0.00464755
0.00484206
0.00545242
0.00640468
0.00698363
0.00722069
0.00758553
0.00513271
0.004967
0.00480136
0.00477918
0.00496187
0.00551733
0.00654132
0.00725755
0.00755446
0.00798242
0.00517994
0.00506463
0.00497729
0.00495816
0.00508219
0.00554032
0.00655323
0.00736215
0.0076113
0.00794035
0.00520048
0.00512026
0.00508367
0.00507838
0.00520539
0.00553717
0.00647205
0.00737064
0.00760016
0.00782
0.0052418
0.00513556
0.00515367
0.0052205
0.00531455
0.00554208
0.00618414
0.00731418
0.00755974
0.00793375
0.00534389
0.00521038
0.0051907
0.00529041
0.0054295
0.00560277
0.0059259
0.00697179
0.00742017
0.00788197
0.00523862
0.0051995
0.00522324
0.00543444
0.00563891
0.00579809
0.00594613
0.00630227
0.00679561
0.00739372
0.00533057
0.00536469
0.0056798
0.0060869
0.00652
0.00684304
0.00680339
0.00665862
0.00685203
0.00705624
0.00506241
0.00502333
0.00475344
0.004366
0.00418782
0.00411205
0.00411803
0.00416427
0.00413407
0.00402573
0.00495534
0.00503296
0.00485334
0.00460275
0.00442862
0.00420494
0.00393628
0.00390171
0.00366603
0.00355908
0.00476199
0.00490855
0.00478534
0.00456955
0.00441257
0.00423467
0.00380976
0.00370948
0.00356843
0.00352713
0.00421293
0.00450917
0.00457998
0.00442901
0.00424667
0.00419249
0.00384723
0.00371598
0.00357016
0.0035315
0.00411979
0.00401964
0.00417151
0.00420704
0.00413861
0.00412759
0.00402303
0.00376676
0.00359084
0.00359653
0.00411288
0.00387012
0.00386917
0.00389941
0.00403585
0.00403957
0.00403728
0.00393019
0.00369563
0.0036333
0.00406041
0.00383665
0.00382178
0.00383214
0.00376608
0.00371134
0.00370384
0.00387445
0.00375673
0.00365659
0.003983
0.00374297
0.00350883
0.00334473
0.00330044
0.00327722
0.00342726
0.00374962
0.00368869
0.00362
0.00362538
0.0034111
0.00331889
0.00329247
0.00333078
0.00332874
0.00348276
0.00368638
0.00385832
0.00376694
0.00326234
0.00320258
0.00317368
0.00319828
0.00332437
0.00343399
0.00344704
0.00391414
0.00418786
0.00369288
0.00178397
0.00180024
0.00185438
0.00189601
0.00191446
0.00194441
0.00195864
0.00196176
0.0019342
0.00191577
0.00177533
0.00180159
0.00183797
0.00184993
0.00187848
0.00194016
0.00196852
0.00198692
0.00201484
0.00202433
0.0017441
0.00175613
0.00177147
0.00176158
0.00178209
0.00184068
0.00191519
0.00194685
0.00196705
0.00197463
0.00174717
0.00174728
0.00174852
0.00174746
0.00174779
0.00175954
0.00181949
0.0018344
0.00183836
0.00182575
0.00179893
0.00177726
0.00176052
0.00175227
0.00174902
0.00175181
0.00176898
0.0018049
0.00180845
0.00179682
0.00183345
0.00182136
0.00180638
0.00178972
0.0017734
0.0017588
0.00176168
0.00177046
0.0017841
0.00178547
0.00182811
0.00182076
0.00181227
0.00180206
0.00179509
0.0017814
0.00176971
0.00177126
0.00177444
0.00178248
0.00177326
0.00179148
0.00180344
0.00180084
0.00179586
0.00178731
0.0017784
0.00177735
0.00177707
0.0017763
0.00175702
0.00178966
0.00179716
0.00179666
0.00179335
0.00178606
0.00178019
0.0017728
0.00175602
0.00177042
0.00175017
0.0017806
0.00178389
0.00178417
0.00178381
0.00178258
0.0017773
0.00177393
0.00179285
0.00181541
0.00153145
0.00152358
0.00155034
0.00157157
0.00160984
0.00162169
0.00162847
0.00164668
0.00165244
0.0016673
0.00156981
0.00155286
0.00156208
0.00157161
0.00160011
0.00161007
0.00164372
0.00164584
0.00165166
0.00168883
0.00168925
0.00163417
0.00160925
0.00160019
0.00162383
0.00166119
0.00166229
0.00166033
0.0016704
0.00169502
0.00172992
0.00174982
0.00174422
0.00172451
0.00170977
0.00170503
0.00169338
0.00168838
0.00167863
0.00168445
0.00159741
0.00163586
0.0017069
0.00175353
0.00178178
0.00178498
0.00173789
0.00170946
0.00169188
0.0016768
0.00171103
0.00170929
0.00171487
0.00173817
0.00177886
0.00180883
0.00181136
0.00176667
0.00172165
0.00169241
0.00178989
0.00179591
0.00178851
0.0017716
0.00178012
0.00180379
0.00182954
0.00182758
0.00177359
0.00175407
0.00178193
0.00178672
0.0017873
0.00178404
0.00178802
0.00180509
0.0018433
0.00184192
0.00178896
0.00176895
0.00180039
0.00180648
0.00179249
0.00179183
0.00179776
0.00182279
0.00186421
0.00180256
0.00178173
0.00174509
0.00175439
0.00182366
0.00181006
0.00181487
0.00183043
0.0018612
0.00179821
0.00176693
0.00173988
0.00169221
0.00153697
0.0015693
0.00169649
0.00169182
0.00171391
0.00182285
0.00190592
0.00191809
0.00190924
0.00187964
0.00165599
0.00166779
0.00167368
0.0016484
0.00167578
0.00173748
0.00176106
0.0017543
0.00172532
0.0016929
0.00167585
0.00166831
0.001654
0.00165924
0.00169371
0.00171944
0.00172393
0.00170469
0.00166904
0.00162738
0.00171569
0.0016889
0.00168312
0.00169406
0.00172348
0.00173023
0.00172639
0.00170622
0.0016658
0.00160907
0.00175653
0.00172486
0.00171809
0.00172309
0.00174579
0.00175169
0.0017491
0.00173022
0.00167958
0.0016115
0.00181327
0.00175937
0.0017472
0.0017439
0.00175263
0.00176376
0.00176093
0.00174433
0.00170295
0.00164961
0.0018554
0.00181169
0.00176396
0.001756
0.00176268
0.00177691
0.00177684
0.00177668
0.00176712
0.00172744
0.00190669
0.00182582
0.0017798
0.00176968
0.00177766
0.00180963
0.00184209
0.00185462
0.00183084
0.00175466
0.00190079
0.00181556
0.00176887
0.00176071
0.00178092
0.00184328
0.00186839
0.001869
0.00181959
0.00173967
0.00186077
0.00177904
0.00174327
0.00174072
0.00177017
0.00182183
0.00183567
0.00180975
0.00172747
0.0016698
0.00510004
0.00510029
0.00511914
0.00515019
0.0051687
0.00515105
0.00511733
0.00511336
0.00512825
0.00521653
0.00508502
0.00509664
0.00509193
0.00508026
0.00507562
0.00506096
0.00502502
0.00502076
0.00502758
0.00505066
0.00499445
0.00507364
0.00510233
0.00510016
0.00508382
0.0050526
0.00501234
0.00497623
0.00497478
0.0049866
0.00487553
0.00499404
0.00508074
0.00512162
0.00512123
0.00509613
0.005039
0.00498621
0.00496798
0.00497137
0.00481161
0.00490867
0.00503157
0.00512087
0.00515532
0.00515284
0.0051248
0.00504713
0.00499515
0.00497812
0.00483079
0.00488503
0.00501386
0.00512236
0.00519002
0.00520512
0.00519661
0.00515879
0.00507404
0.00501089
0.00492298
0.004951
0.00504578
0.00516053
0.0052504
0.00528743
0.00528411
0.00525555
0.00517815
0.00509519
0.00508853
0.00509755
0.00514818
0.00525083
0.00533897
0.00537705
0.00537363
0.00534358
0.0052634
0.00516501
0.00528697
0.0052905
0.00532354
0.00538591
0.0054396
0.00544553
0.00543341
0.00539283
0.00531713
0.00521913
0.00553736
0.00549282
0.00549816
0.00552787
0.00553296
0.00552165
0.0054909
0.00542363
0.00533834
0.00525852
0.00482315
0.00486671
0.00491846
0.00496704
0.00501662
0.00502964
0.00503024
0.00503434
0.00505084
0.00513263
0.00480628
0.00486177
0.00488006
0.00489369
0.00490926
0.00491428
0.00491457
0.00491958
0.00493739
0.00495493
0.00470425
0.00483508
0.00489477
0.00490711
0.00490939
0.00490462
0.00489068
0.00487815
0.00488057
0.00489481
0.00458428
0.00473691
0.00486692
0.00494126
0.00495189
0.0049454
0.00492306
0.00489384
0.00488434
0.00489423
0.00452816
0.00464343
0.00480073
0.00492613
0.00500822
0.00502401
0.00501339
0.00497534
0.00492907
0.00491923
0.00456649
0.0046261
0.00478149
0.00493039
0.00504332
0.00510881
0.00511524
0.00510331
0.00505932
0.00500596
0.00467844
0.00471377
0.00482576
0.0049859
0.00511518
0.00519682
0.00522069
0.00521655
0.00519121
0.00511871
0.00485425
0.00487152
0.00492946
0.00506261
0.00519438
0.00528895
0.00532242
0.00531922
0.00529234
0.00520762
0.00505501
0.00506103
0.00508635
0.0051635
0.00527441
0.00534938
0.00537509
0.00536903
0.00534186
0.00526498
0.00530424
0.00526307
0.00525989
0.00528759
0.00536027
0.00540923
0.00540845
0.00539388
0.00534563
0.00527641
0.00453021
0.00460642
0.00467892
0.00473259
0.0047977
0.00484144
0.00487393
0.00490731
0.00493925
0.00501816
0.00452337
0.00459905
0.00463677
0.004678
0.00471401
0.00473881
0.00476183
0.00478366
0.00482078
0.00485054
0.00445435
0.00457987
0.00464782
0.00468216
0.00471292
0.00473711
0.00475042
0.00476243
0.00477706
0.00480564
0.00433264
0.00452041
0.00464393
0.00472059
0.00477031
0.00478701
0.00479043
0.00479272
0.0047987
0.00481807
0.00429012
0.00441617
0.00462083
0.00476172
0.00484863
0.00490537
0.00491592
0.00490788
0.00488644
0.00489099
0.00434265
0.00441401
0.00459584
0.00479278
0.00493786
0.00502427
0.0050671
0.00507646
0.00506588
0.00503051
0.004456
0.00451177
0.00465726
0.00485852
0.00503217
0.00514562
0.0052129
0.00522473
0.00521694
0.0051786
0.00463752
0.00468033
0.00478616
0.00493704
0.00509642
0.00523003
0.00530937
0.00533162
0.00532724
0.00529324
0.00485268
0.00487892
0.00493019
0.00500888
0.00512766
0.00526514
0.00534631
0.0053643
0.00535818
0.00533245
0.00513697
0.0051167
0.00507952
0.0050816
0.00512473
0.00524069
0.00532107
0.00534187
0.00532941
0.00528578
0.00423574
0.0043439
0.0044167
0.00448631
0.00455719
0.00461516
0.00467416
0.00473114
0.00481349
0.00489916
0.00424645
0.00433252
0.00439033
0.00444246
0.00449663
0.00454448
0.00459764
0.00463825
0.0047012
0.00474028
0.00421096
0.00433237
0.00441078
0.00446243
0.00451188
0.00455556
0.00460293
0.00463894
0.00467874
0.00472009
0.00413849
0.00430317
0.0044306
0.00452444
0.00459706
0.00464101
0.0046735
0.00469657
0.00472047
0.00475688
0.00409573
0.00426654
0.00445607
0.00460362
0.00471903
0.00480683
0.00485597
0.00487695
0.00488097
0.00489526
0.00415924
0.0042635
0.00449234
0.00471032
0.00487108
0.00497537
0.00505035
0.00508211
0.00508782
0.00508325
0.00427657
0.00436627
0.004571
0.00479925
0.00499852
0.00514063
0.00522304
0.00525673
0.00527196
0.00526098
0.00443892