/*--------------------------------*- C++ -*----------------------------------*\
  =========                 |
  \\      /  F ield         | OpenFOAM: The Open Source CFD Toolbox
   \\    /   O peration     | Website:  https://openfoam.org
    \\  /    A nd           | Version:  9
     \\/     M anipulation  |
\*---------------------------------------------------------------------------*/
FoamFile
{
    format      ascii;
    class       volScalarField;
    location    "79";
    object      f7.gas;
}
// * * * * * * * * * * * * * * * * * * * * * * * * * * * * * * * * * * * * * //

dimensions      [0 0 0 0 0 0 0];

internalField   nonuniform List<scalar> 
137980
(
0.00386072
0.0040151
0.00438082
0.00491283
0.00545559
0.0057549
0.0058341
0.00585674
0.00595939
0.00606997
0.00371342
0.00385084
0.00415435
0.00463916
0.00530941
0.00579832
0.00590971
0.00592116
0.00597124
0.00606129
0.00366782
0.00375995
0.00396229
0.00431543
0.00484249
0.00555653
0.00593968
0.0059808
0.00592385
0.00580511
0.00355634
0.00361567
0.0037489
0.00400199
0.00438653
0.00485787
0.00542775
0.00579842
0.00583238
0.00562132
0.00345863
0.00349285
0.00357568
0.00373486
0.00400006
0.00432299
0.00469492
0.00506591
0.0052888
0.00525559
0.00337029
0.00338004
0.00342369
0.00352775
0.0036835
0.00391436
0.00415162
0.00439624
0.00457294
0.00461382
0.00331447
0.0033013
0.00331278
0.00337312
0.00346098
0.00359995
0.00377837
0.00394596
0.00407512
0.00415043
0.00329713
0.00326681
0.00326418
0.00328319
0.00334831
0.00341925
0.00351766
0.00364741
0.00374757
0.00383193
0.00331404
0.00326869
0.00325452
0.00325705
0.0032879
0.00336082
0.00343072
0.00350524
0.00355977
0.00362649
0.00339365
0.00331878
0.00329464
0.00328799
0.00329399
0.00333119
0.00341174
0.00348711
0.0035371
0.00361179
0.00369714
0.00390732
0.00428552
0.00478975
0.00533646
0.00569004
0.00581785
0.00589596
0.0061054
0.00634442
0.00357362
0.00376832
0.00407683
0.00461193
0.00532645
0.00576871
0.00589558
0.00594166
0.00608963
0.00629056
0.00353
0.00368337
0.00393242
0.00434293
0.00494689
0.00569269
0.00596343
0.00601479
0.00604667
0.00615734
0.00342767
0.00352589
0.00370082
0.00402706
0.00447663
0.00509191
0.00575224
0.005954
0.00598093
0.00584631
0.00333374
0.00339653
0.00351057
0.00374439
0.00405537
0.00447651
0.00500543
0.00553555
0.00569116
0.00560521
0.00325871
0.00328689
0.00335291
0.00349205
0.003713
0.00399452
0.00432705
0.00467988
0.00494075
0.00499388
0.00321233
0.00320827
0.00324611
0.00330123
0.00345319
0.00363403
0.00385149
0.00408528
0.00427278
0.00437913
0.003208
0.0031721
0.00318474
0.00321599
0.00326668
0.00339648
0.00353888
0.00368981
0.00381525
0.00392071
0.00324177
0.00318044
0.00316776
0.00319095
0.00320992
0.00325303
0.00335087
0.00345441
0.0035367
0.00363019
0.00332563
0.00324034
0.00319829
0.00320183
0.00322434
0.00325082
0.00328707
0.00335435
0.00341042
0.00350871
0.00359567
0.00383759
0.0042109
0.00470688
0.0052886
0.00570181
0.00591684
0.00606991
0.00643881
0.00734225
0.00358255
0.00377201
0.00408923
0.00464697
0.00535913
0.00582587
0.00605786
0.0064216
0.006879
0.00748136
0.00344803
0.00366028
0.00396835
0.00444538
0.00516367
0.00586105
0.00614648
0.00641732
0.00695096
0.00745634
0.00335523
0.00349068
0.00373869
0.00413763
0.0047335
0.00552981
0.00610063
0.00636435
0.00675045
0.00701852
0.00325539
0.00334012
0.00353501
0.00382623
0.00426842
0.00489226
0.0056849
0.00615869
0.00637857
0.00643553
0.00318711
0.00321387
0.00333687
0.00354328
0.00385974
0.00429297
0.00485548
0.00545476
0.00577687
0.00588246
0.00314258
0.00313575
0.00317504
0.00332401
0.00352538
0.00381605
0.0041787
0.00459714
0.00493085
0.00511918
0.0031186
0.00309297
0.00309297
0.00316359
0.00329618
0.00347522
0.00370494
0.00395317
0.00417006
0.00435424
0.00310897
0.00307919
0.00307153
0.0030754
0.00316106
0.00327801
0.00341276
0.00355809
0.00366968
0.00378767
0.003156
0.00309982
0.00309072
0.0030908
0.00310384
0.00317257
0.00328545
0.00338021
0.00344725
0.00353596
0.00362178
0.00384221
0.00413828
0.0045857
0.00513928
0.00562212
0.00588173
0.00582332
0.00633629
0.00674735
0.00363895
0.00379301
0.00409462
0.00462561
0.00531704
0.00594716
0.00626085
0.00640492
0.00677902
0.00731145
0.00344955
0.00368165
0.00404778
0.00459317
0.0053588
0.00613389
0.00657176
0.00692475
0.00740534
0.00775537
0.00336991
0.00352268
0.00384185
0.00436827
0.00515428
0.00612851
0.00683259
0.00725345
0.00782914
0.00807696
0.00323791
0.00336412
0.00362571
0.00405972
0.00476512
0.00576318
0.00676727
0.00731744
0.0078443
0.00817462
0.00312032
0.00320469
0.00339943
0.00373312
0.00425878
0.00509697
0.00626849
0.00714079
0.00770774
0.00806111
0.00304258
0.00307007
0.00321019
0.00344949
0.00382456
0.00439256
0.00516625
0.00631921
0.00714038
0.00758082
0.00298963
0.00298482
0.00306977
0.0032236
0.00348386
0.00386143
0.00436724
0.00496505
0.00558673
0.00616612
0.00297799
0.00295287
0.00297928
0.00309137
0.00324879
0.00350324
0.00381364
0.00413396
0.00437531
0.0046665
0.00305358
0.00297306
0.00296437
0.00301552
0.00312869
0.00328221
0.00351288
0.00371036
0.00381421
0.00379623
0.00367748
0.00387603
0.00408791
0.00441422
0.00484238
0.00539904
0.00574024
0.00595094
0.0066747
0.00642223
0.00363935
0.00379886
0.00407889
0.0045612
0.00518921
0.00580842
0.00621657
0.00646687
0.00706832
0.00703831
0.00342521
0.00369358
0.00410321
0.00468123
0.0054709
0.00623955
0.00665784
0.00705404
0.00759986
0.00771983
0.00335048
0.00356267
0.00400337
0.00467825
0.0055946
0.00655062
0.00714909
0.00753841
0.00817664
0.00841814
0.00318619
0.00342063
0.00382384
0.00449436
0.00548965
0.00665253
0.00754983
0.0080272
0.00850573
0.00870793
0.00307512
0.00323861
0.00357355
0.00418156
0.00515362
0.00643637
0.00759401
0.00833855
0.00884582
0.0090385
0.00299874
0.00308705
0.00332925
0.00378668
0.00461499
0.00585596
0.00730891
0.00831084
0.00907726
0.00963219
0.00296441
0.00297834
0.00313454
0.00347347
0.00406422
0.00498132
0.00637359
0.00781779
0.00878999
0.00945095
0.00298671
0.00294276
0.00300512
0.00323899
0.00366964
0.00432577
0.00518129
0.00624756
0.00719051
0.0077509
0.003091
0.00298316
0.00297359
0.00308078
0.00337263
0.00390283
0.00459057
0.00512786
0.00507264
0.0047442
0.00379071
0.00398372
0.00406666
0.00423065
0.00452146
0.00505973
0.00585011
0.00653632
0.00629959
0.0063352
0.0036174
0.00380273
0.00406914
0.00448217
0.00507299
0.0058209
0.00639803
0.00696844
0.00722671
0.00710092
0.00337488
0.00372314
0.00415109
0.00475532
0.00557428
0.00643022
0.00702019
0.00758624
0.00813025
0.00802374
0.0032971
0.00360937
0.00411722
0.00485576
0.00586635
0.00693467
0.00770496
0.00837986
0.0090485
0.00896539
0.00319938
0.00350297
0.00400515
0.0048232
0.00598223
0.00729143
0.00830454
0.00905485
0.00968213
0.00976521
0.00312269
0.00333874
0.00382467
0.00467297
0.00595493
0.00747605
0.00878565
0.00983717
0.010399
0.0105212
0.00309438
0.00318442
0.00360547
0.00443445
0.00576214
0.00749182
0.00928488
0.0102981
0.010831
0.0109673
0.00319209
0.00310306
0.00337674
0.00413372
0.00541701
0.00728201
0.00949742
0.0111882
0.011919
0.0122136
0.00339444
0.00318039
0.00321073
0.00378194
0.0049177
0.00663743
0.0090898
0.0110461
0.0121313
0.0134494
0.00349114
0.00325285
0.00317585
0.0034932
0.00438999
0.00595528
0.00796038
0.00975121
0.00989014
0.00921843
0.00399612
0.00402852
0.00407721
0.00421927
0.00451577
0.00526636
0.00735991
0.00724765
0.00624139
0.00864331
0.00362793
0.00385807
0.00415082
0.0046153
0.00533375
0.00679015
0.00837135
0.00805007
0.00691163
0.00882703
0.00344491
0.00385826
0.00439329
0.00514832
0.0062817
0.00821101
0.00913991
0.00893249
0.00772724
0.00908412
0.00339716
0.00383412
0.0045473
0.00559042
0.00715548
0.00924157
0.00992659
0.00985666
0.00863778
0.00949013
0.0033868
0.00383614
0.00465442
0.00596546
0.00805679
0.0100874
0.0107032
0.0107246
0.00966812
0.00996429
0.00342679
0.00377843
0.0047016
0.00632001
0.00894088
0.0108772
0.0115263
0.0116129
0.010804
0.0107058
0.00355819
0.00372363
0.00469095
0.00666398
0.00991453
0.0117529
0.0124177
0.0125542
0.0118355
0.0115088
0.00390195
0.00370417
0.00458365
0.00688405
0.0106226
0.0126444
0.0134057
0.0136167
0.012955
0.0125431
0.00419289
0.00393995
0.00446104
0.00687188
0.0111734
0.0132677
0.0141723
0.0145009
0.0141215
0.0139357
0.00435991
0.00406097
0.00447121
0.00662537
0.01113
0.0138749
0.0159942
0.0169617
0.0173522
0.0169997
0.00420621
0.00413409
0.00420391
0.00444107
0.00481863
0.00664561
0.00650505
0.00618724
0.00967727
0.0246546
0.0038202
0.00419056
0.00482469
0.00593308
0.00713302
0.00777247
0.00749009
0.00751916
0.0136579
0.0252623
0.00392621
0.00470023
0.00617315
0.00776362
0.00848008
0.00867372
0.00846019
0.00920808
0.0176479
0.0248694
0.00406312
0.00517288
0.00740188
0.00892076
0.00947743
0.00955089
0.00951408
0.0110552
0.0198362
0.0235395
0.00427901
0.00560528
0.00827141
0.00981084
0.0103314
0.0104299
0.0104691
0.012459
0.0204769
0.0232479
0.00452726
0.00587052
0.0088682
0.0105489
0.0111348
0.0113262
0.0114124
0.0131969
0.0203601
0.0228147
0.00478307
0.00595882
0.00931268
0.0112583
0.0119101
0.0121106
0.0121095
0.0133384
0.0197803
0.0222408
0.00511343
0.00586894
0.00944413
0.011789
0.0126263
0.0129577
0.0129854
0.0136435
0.0189753
0.0210154
0.00549659
0.00595072
0.00947173
0.01228
0.0133502
0.0136767
0.0136818
0.0139862
0.0175663
0.0203671
0.00654205
0.00639533
0.00978328
0.0127202
0.0138296
0.0144105
0.0146802
0.0147016
0.0166366
0.0190643
0.00444094
0.00445734
0.00458172
0.00468581
0.0050957
0.0059865
0.00631918
0.0104692
0.0283791
0.0298633
0.00449516
0.00515397
0.0055435
0.00586763
0.00663403
0.00716805
0.00859369
0.0192304
0.0271299
0.0216393
0.00557306
0.00662744
0.00721861
0.00756066
0.00817787
0.00914749
0.0136708
0.0221924
0.0230025
0.013146
0.00638835
0.0078821
0.00851121
0.00884877
0.0095899
0.0117756
0.0187945
0.0216143
0.016835
0.00991799
0.00729902
0.00889652
0.00960226
0.0101083
0.0113068
0.0148827
0.0197265
0.0202248
0.0129307
0.00849136
0.00801922
0.00977293
0.0105522
0.0112242
0.0128838
0.0169089
0.0196245
0.0185267
0.0110851
0.0081934
0.00855473
0.0103583
0.0112032
0.0121838
0.0140595
0.0178376
0.0193766
0.017415
0.0106568
0.00832904
0.00889531
0.0108804
0.0119344
0.0130074
0.0149313
0.0181269
0.0190471
0.0168536
0.0108227
0.00876351
0.00899887
0.0109577
0.0122447
0.0135272
0.0154196
0.0181485
0.0189525
0.0169665
0.0112337
0.00923043
0.00931063
0.0112389
0.0127912
0.0141047
0.0157554
0.0180921
0.0188117
0.0175786
0.0124129
0.0102501
0.00536692
0.00537437
0.00524577
0.00535993
0.00616006
0.00771902
0.0152151
0.0272732
0.0268207
0.0250426
0.00552258
0.00584469
0.00587973
0.00644877
0.00799311
0.0118837
0.0234121
0.0265794
0.0236365
0.0199761
0.00628809
0.00685447
0.00712023
0.00804883
0.0109879
0.0201015
0.0241287
0.023946
0.0164578
0.0133845
0.00752587
0.00808238
0.00868401
0.0104938
0.0161195
0.0224771
0.0232789
0.0183328
0.0121851
0.00994091
0.00849491
0.00913385
0.0102065
0.0131599
0.0198488
0.0223337
0.0214127
0.0135393
0.00992292
0.00834776
0.00958123
0.0103828
0.0119395
0.0157932
0.0209468
0.0218303
0.0179789
0.0111644
0.00869447
0.00757188
0.0102319
0.0111883
0.0130755
0.0174938
0.0209792
0.0210988
0.0159134
0.0100222
0.00804456
0.00722167
0.0109483
0.0121132
0.01425
0.0185808
0.0208957
0.0201962
0.0141685
0.00935051
0.00771221
0.00709875
0.0112782
0.0124028
0.0145248
0.0187737
0.0206787
0.0199314
0.0141099
0.00936435
0.00764518
0.00710204
0.0115937
0.0129262
0.0151487
0.0190285
0.0205867
0.0201013
0.0149804
0.00971629
0.00769171
0.00721307
0.00601871
0.00599568
0.00594188
0.00634519
0.00756723
0.0100088
0.0199858
0.0223128
0.0209876
0.0215365
0.00603633
0.00625422
0.00639395
0.00725412
0.00946012
0.0140641
0.0223686
0.0232426
0.0225719
0.0226844
0.00643103
0.00685542
0.00729631
0.00865034
0.01191
0.0199095
0.0232921
0.0231903
0.0221736
0.0217067
0.00752237
0.00799604
0.0085984
0.0106706
0.016636
0.0224833
0.0235407
0.0227023
0.0207994
0.0178272
0.00859807
0.00890212
0.0101149
0.0137317
0.0206675
0.0232778
0.0233865
0.0215451
0.017889
0.014183
0.00991998
0.0104443
0.0123148
0.0171243
0.0223988
0.0234337
0.0226744
0.0191884
0.0151243
0.0118164
0.0107355
0.0113406
0.0138887
0.020039
0.0230761
0.0233961
0.0219263
0.0175586
0.0135717
0.0108215
0.0114311
0.0126454
0.0159226
0.0215591
0.0233023
0.0232566
0.0206854
0.0162621
0.012707
0.00992502
0.0119145
0.0130084
0.0167088
0.0221403
0.0234825
0.0233053
0.0205297
0.0159932
0.0120587
0.00972862
0.0122866
0.0138185
0.0178063
0.0227203
0.0236592
0.0234375
0.021226
0.0165287
0.0120884
0.00912475
0.00714605
0.00728943
0.00755569
0.00839966
0.00917321
0.0117574
0.014853
0.0137915
0.0138299
0.0143773
0.00749472
0.00780233
0.00829527
0.00945297
0.0107285
0.0133271
0.0154679
0.0145331
0.0143123
0.0145894
0.00872491
0.00876817
0.0094818
0.0108372
0.0126033
0.0151194
0.0161453
0.0148602
0.0145718
0.0150715
0.0107928
0.0105393
0.0112174
0.0128212
0.015154
0.0162942
0.0163992
0.0149952
0.0149859
0.015803
0.0135121
0.0127612
0.0134999
0.0153923
0.0168055
0.0171417
0.0163841
0.0152868
0.0154556
0.0165119
0.0155378
0.015174
0.0159409
0.0172671
0.0181344
0.0175795
0.0165511
0.0159334
0.0164688
0.0179311
0.016521
0.016366
0.0173524
0.018898
0.019308
0.0184019
0.017071
0.0169199
0.0174879
0.0196985
0.0179616
0.0179145
0.0189158
0.020638
0.0206929
0.0194396
0.0183834
0.0183614
0.019276
0.0202145
0.0182237
0.0183301
0.0193125
0.0214992
0.0221174
0.021554
0.0197875
0.0197601
0.0200842
0.0212922
0.0186066
0.0190938
0.0202358
0.0223771
0.0233238
0.0232806
0.0227069
0.0212152
0.0218377
0.0207845
0.0157361
0.0178474
0.0184658
0.0192886
0.0195821
0.0195746
0.0168285
0.0152337
0.015102
0.0150652
0.0169918
0.017104
0.0180237
0.0192896
0.0201171
0.0208134
0.0208472
0.0190677
0.0178314
0.0171536
0.0174323
0.0174173
0.0179432
0.0190233
0.0198775
0.0208488
0.0221709
0.0221428
0.0211618
0.0190633
0.0177797
0.0175453
0.0178404
0.018885
0.0195513
0.0203384
0.021629
0.023318
0.0231399
0.0219568
0.0168929
0.016589
0.0169276
0.0180605
0.0191962
0.0201595
0.0209161
0.0229877
0.0241372
0.023315
0.0153575
0.0157238
0.0165866
0.0178682
0.0188017
0.0196122
0.0204201
0.0223575
0.0246509
0.0231607
0.0147394
0.0154597
0.016549
0.0178576
0.0186508
0.0194178
0.0200914
0.0214546
0.024791
0.0233504
0.0143911
0.0154257
0.016628
0.0179129
0.0185762
0.0195094
0.0200688
0.0211638
0.0246695
0.0237639
0.01433
0.0157671
0.0169754
0.0181896
0.019027
0.0207842
0.020966
0.0214693
0.0242669
0.024641
0.0150738
0.0167728
0.0180155
0.0191148
0.0217003
0.024063
0.0238736
0.0226366
0.0246493
0.0240355
0.0150444
0.0151193
0.0148545
0.0147758
0.014822
0.0151105
0.0157115
0.0160599
0.0161316
0.0163857
0.0138468
0.0135067
0.0134463
0.0135224
0.0138227
0.0143855
0.0149479
0.0154567
0.0157622
0.0164388
0.013125
0.0127317
0.0126883
0.0129331
0.0134446
0.0140379
0.0146205
0.0151904
0.0155546
0.0163729
0.0118912
0.0118142
0.0120816
0.0127379
0.0133393
0.0139527
0.0145129
0.0150858
0.0154853
0.016371
0.0111745
0.0114769
0.0119817
0.012786
0.0135134
0.0143481
0.0148203
0.015158
0.0155068
0.0164269
0.0108847
0.0114723
0.0122003
0.0134913
0.0146482
0.0157
0.0161628
0.0161284
0.0161184
0.0171081
0.010975
0.0119829
0.0133419
0.0152374
0.0169275
0.0178067
0.0177135
0.0174297
0.0168021
0.0175719
0.0121294
0.013403
0.0155613
0.0182639
0.0190172
0.0188188
0.01828
0.0178088
0.0172217
0.0177818
0.0132457
0.014982
0.0184251
0.0200356
0.0197774
0.0191391
0.0182091
0.0174218
0.0171015
0.0184606
0.0136279
0.0164937
0.0199424
0.0207965
0.0199855
0.0189642
0.0175845
0.0173039
0.0173223
0.0171336
0.0142618
0.0145818
0.0145844
0.014545
0.0144602
0.0143351
0.0141704
0.0140127
0.0136286
0.0115937
0.0141542
0.0144567
0.0144887
0.0144231
0.0142699
0.0139965
0.0138425
0.0136603
0.0131494
0.0120314
0.0141237
0.0144422
0.0144684
0.0143919
0.0141934
0.0138423
0.0136127
0.0132854
0.0123143
0.0113772
0.0141165
0.0144851
0.0145112
0.0144143
0.0141708
0.0137964
0.0133984
0.0126388
0.0110678
0.00999799
0.0141929
0.014632
0.0146904
0.014608
0.0143478
0.0138186
0.0127808
0.0109532
0.00919293
0.00792637
0.014311
0.014755
0.0148388
0.0148967
0.0146485
0.0135855
0.0112059
0.00904093
0.00773043
0.00697165
0.0143977
0.0149035
0.0150772
0.0154995
0.0148623
0.0122652
0.00977151
0.00812967
0.00709253
0.00653868
0.0144477
0.0150022
0.01526
0.0159056
0.0147354
0.0111641
0.00911274
0.00776742
0.00688004
0.00643531
0.0144486
0.0150367
0.0153242
0.0159495
0.0140388
0.0104134
0.00877575
0.00782785
0.00738143
0.00705037
0.0142889
0.0150118
0.0147793
0.0151255
0.0128599
0.0100867
0.0089869
0.0082477
0.00784883
0.00744672
0.0135801
0.0132752
0.0128569
0.0124162
0.0119695
0.0115799
0.0105599
0.00969768
0.0105251
0.0104595
0.0133702
0.013169
0.0127044
0.0121752
0.011657
0.0111469
0.0100254
0.00953483
0.0100997
0.0100112
0.0128806
0.012665
0.0121793
0.0116866
0.0112098
0.0106273
0.00963473
0.0090933
0.00982943
0.00994373
0.0126104
0.0124436
0.01193
0.0114494
0.0109787
0.0102613
0.00927687
0.00872772
0.00920303
0.00963575
0.0122902
0.01202
0.0114454
0.0111227
0.0106352
0.0097321
0.00882815
0.0084402
0.00861634
0.00889766
0.012018
0.0116518
0.0112132
0.0109689
0.0103719
0.00918526
0.00846199
0.00813901
0.00808855
0.00807985
0.0117083
0.0111735
0.0108343
0.0107313
0.00988324
0.00883441
0.00819982
0.00783549
0.00762823
0.00743357
0.0113522
0.0107704
0.0105185
0.0104365
0.00966811
0.00861007
0.00799385
0.0075396
0.00720543
0.00696908
0.0109838
0.0102741
0.00996716
0.0101208
0.00952031
0.00842695
0.00787722
0.00742963
0.00712324
0.00678817
0.0106534
0.0098695
0.00969441
0.00981129
0.00917442
0.00837796
0.00783174
0.00736167
0.00696125
0.00641743
0.0113396
0.0120825
0.0120173
0.0118954
0.0116973
0.0120951
0.0125355
0.0140383
0.0144453
0.0111076
0.0110496
0.0118265
0.0119595
0.0117875
0.0113267
0.0115225
0.0119655
0.0128287
0.0145156
0.0134812
0.0107835
0.0116753
0.0117562
0.0115797
0.0110447
0.0110211
0.0113338
0.0118594
0.0136064
0.0139985
0.0106785
0.0116105
0.01167
0.0114321
0.0107528
0.0104688
0.0107304
0.0112947
0.0126868
0.0137148
0.0106394
0.0115893
0.0115109
0.0111216
0.0103304
0.00989708
0.0101656
0.0108153
0.0123513
0.0136118
0.0111342
0.0115396
0.0113268
0.0106815
0.00985377
0.00937815
0.00964783
0.0104302
0.0124273
0.0128365
0.0113687
0.0113261
0.0109547
0.0100752
0.0092603
0.00881486
0.00909958
0.0101236
0.0124963
0.0111521
0.0114065
0.0111004
0.010429
0.00945499
0.00866034
0.00825379
0.00851142
0.00956341
0.0123168
0.0118901
0.0110958
0.0105689
0.00987559
0.00882545
0.00797572
0.00763987
0.00782764
0.0085352
0.0110705
0.0120073
0.010733
0.0102953
0.00930654
0.00809109
0.00730378
0.0070961
0.00724243
0.00777959
0.00971612
0.00979776
0.00978359
0.0115535
0.013755
0.0147962
0.0151128
0.01493
0.0127427
0.011917
0.0116133
0.0103894
0.0097005
0.0101799
0.0114348
0.0127612
0.0147386
0.0155808
0.0149853
0.0114237
0.0104977
0.00986747
0.00890919
0.00963384
0.010592
0.01158
0.0125181
0.0149078
0.0164127
0.0142892
0.0107367
0.00985004
0.00856673
0.00914836
0.0102248
0.0111453
0.0117974
0.0127148
0.0152465
0.0184012
0.01199
0.0102465
0.00837939
0.00899834
0.0101286
0.0110347
0.0115374
0.0120781
0.0132403
0.0172437
0.015523
0.0111849
0.00829917
0.00918076
0.0105614
0.0113904
0.0115158
0.0118006
0.0125528
0.0149804
0.0168443
0.0132808
0.00851829
0.00980293
0.0111284
0.0116956
0.0118236
0.0117451
0.0120742
0.0132993
0.0166277
0.013709
0.00937153
0.0107869
0.0120478
0.0123054
0.0121049
0.0116025
0.0117387
0.0125006
0.0158877
0.0151406
0.0107139
0.0123354
0.0128411
0.0125541
0.0121426
0.01132
0.0113706
0.0118587
0.0141348
0.0151413
0.0125973
0.0133636
0.0131595
0.0125244
0.0116027
0.0106337
0.0106952
0.0110559
0.0120344
0.0114968
0.00760163
0.00650831
0.00613451
0.00628171
0.00644868
0.00683496
0.00734252
0.00749291
0.0075554
0.00804161
0.00734376
0.00655636
0.00662744
0.00738178
0.00798097
0.0081964
0.00820536
0.00818403
0.0083753
0.00871781
0.00704313
0.00701019
0.00821728
0.00894341
0.00921299
0.00934805
0.00946508
0.00976223
0.0104199
0.0109729
0.00750899
0.00848985
0.00969405
0.0100826
0.0102141
0.0102643
0.0103532
0.0105398
0.0108377
0.0109293
0.00849291
0.00972913
0.0104481
0.0106407
0.0106612
0.0105781
0.0105492
0.0106213
0.0106171
0.00973969
0.00902651
0.0102218
0.0107969
0.0108478
0.0107719
0.0106431
0.010543
0.0105091
0.0100869
0.00944926
0.00933723
0.010072
0.011004
0.0111478
0.0109474
0.010721
0.0105032
0.0102599
0.00985097
0.00945889
0.00937675
0.00981771
0.0108736
0.011361
0.0113716
0.0109363
0.0106299
0.0103445
0.00976098
0.00933811
0.00912752
0.0095601
0.0101904
0.0111941
0.0115662
0.0114487
0.0111444
0.0107768
0.00986064
0.00984597
0.00879187
0.00935688
0.00987059
0.0106083
0.0113265
0.0115814
0.0118512
0.0116614
0.0104016
0.009774
0.00589239
0.00570744
0.00553168
0.00537375
0.00553553
0.00612033
0.00679342
0.00733276
0.00783891
0.00794145
0.00602537
0.00576412
0.00563072
0.00555069
0.00570278
0.00630311
0.00708439
0.00757936
0.00778605
0.00790075
0.00610487
0.00587688
0.0057106
0.00567509
0.00584285
0.00639155
0.00725606
0.00779407
0.00805554
0.00846762
0.00616255
0.00604484
0.00588493
0.0058342
0.00599441
0.0064901
0.0074001
0.00806644
0.00838422
0.00881104
0.00615758
0.00610323
0.00605065
0.00604195
0.00614145
0.00652329
0.00742258
0.00816666
0.00842765
0.00874049
0.00613963
0.00610765
0.00612218
0.00616538
0.00629338
0.0065411
0.00735874
0.00817028
0.00840479
0.00861
0.00614605
0.00610413
0.00617518
0.00629838
0.00641774
0.00657708
0.00712047
0.00811716
0.00835109
0.00872514
0.00625506
0.00618879
0.00621345
0.00633832
0.00652421
0.00666333
0.00690493
0.00779498
0.00820833
0.00867605
0.00614737
0.00613813
0.00621167
0.00644336
0.00668549
0.0068474
0.00693989
0.00721147
0.00761951
0.00817232
0.00626825
0.00634194
0.00664915
0.007111
0.00755129
0.00785608
0.00780662
0.00761171
0.00774414
0.00791745
0.00601235
0.00598414
0.00575233
0.00544032
0.0052933
0.00521326
0.0052293
0.00531934
0.00531036
0.00515097
0.00588926
0.00599866
0.00579352
0.00558505
0.00547932
0.00528469
0.00501293
0.00497502
0.00467519
0.00453377
0.00569158
0.00588776
0.0057026
0.00547952
0.00538748
0.00527216
0.00483972
0.00473774
0.00454903
0.00449226
0.00508995
0.00546922
0.00553053
0.00528465
0.00513801
0.00516705
0.00487655
0.00474494
0.0045509
0.00452188
0.0050065
0.00488113
0.0050688
0.00514125
0.00504705
0.00504069
0.00501657
0.00482639
0.00459341
0.00461203
0.00500828
0.00473604
0.00472363
0.00475894
0.00496229
0.00499339
0.00502624
0.00495413
0.00474416
0.00465891
0.00496674
0.00469379
0.00469649
0.00471929
0.00463276
0.00461482
0.00461221
0.00487769
0.00477772
0.00466776
0.00488573
0.00461236
0.00446477
0.00430649
0.00426152
0.0042077
0.00436395
0.004729
0.00468431
0.00461109
0.00458414
0.00438506
0.00429899
0.00427397
0.00432885
0.0043125
0.00443765
0.00473714
0.00508395
0.00492899
0.00421557
0.00416672
0.00412755
0.00414776
0.0043177
0.00450345
0.00442919
0.00513842
0.00551016
0.00471128
0.00256947
0.00258325
0.00262939
0.00264562
0.00265363
0.00268582
0.00270015
0.00270185
0.00267959
0.0026533
0.00255825
0.00258536
0.00261573
0.00261843
0.00262329
0.00268208
0.0027114
0.00272458
0.00275129
0.00275334
0.00251653
0.00253168
0.00254801
0.00253495
0.00254698
0.00257121
0.00264897
0.00268425
0.00270355
0.00271062
0.00251436
0.00251393
0.00251557
0.00251439
0.00251426
0.00252903
0.00257711
0.00258532
0.00259906
0.00259115
0.00256987
0.00254179
0.0025257
0.00251744
0.00251436
0.00251806
0.00254799
0.00256737
0.00255841
0.00256042
0.0026209
0.00260638
0.00258605
0.00256613
0.00254189
0.00252496
0.00252905
0.00253991
0.00255083
0.00255729
0.00262461
0.00260951
0.00259737
0.0025854
0.00257624
0.00255561
0.00253776
0.00254014
0.00254455
0.00256426
0.00254601
0.00257407
0.00258746
0.00258445
0.00257918
0.00256691
0.00255269
0.00255235
0.00255559
0.00255613
0.00251676
0.0025742
0.00258125
0.00258068
0.00257737
0.00256707
0.0025594
0.00255045
0.00252588
0.00255509
0.00250361
0.00256056
0.00256561
0.00256663
0.00256801
0.00256699
0.00255741
0.00254848
0.00256535
0.00259616
0.0022572
0.00224316
0.00228053
0.00231232
0.00235566
0.00235453
0.00235703
0.00238387
0.0023884
0.00241069
0.00230143
0.00227097
0.0022831
0.00229758
0.00232991
0.00233592
0.00238686
0.00238658
0.00239058
0.0024657
0.00248332
0.00238238
0.00234345
0.00233076
0.00236273
0.00241337
0.00240808
0.00239837
0.00241184
0.00248739
0.00254687
0.00257007
0.00255947
0.00252304
0.00249183
0.00246713
0.00244048
0.00243138
0.00242234
0.00246277
0.00235583
0.00241955
0.00252008
0.00258214
0.00260631
0.00259756
0.00249521
0.0024511
0.00243277
0.00242811
0.00252115
0.00252349
0.00253153
0.00256646
0.00261204
0.00263927
0.00263324
0.00253672
0.00246144
0.00243084
0.0025891
0.00260812
0.00260848
0.00260555
0.0026155
0.00264032
0.00266746
0.00265494
0.00253784
0.00250594
0.00256328
0.00257101
0.00258413
0.0025983
0.00261696
0.00264126
0.00268716
0.00267381
0.00255073
0.00252039
0.00260259
0.00260494
0.0025909
0.00260264
0.00262258
0.00265987
0.00271972
0.00258296
0.00252889
0.00249148
0.00254649
0.00265136
0.0026215
0.00263474
0.00266658
0.00272196
0.00257395
0.00251045
0.002481
0.00244565
0.00226706
0.00230402
0.00246309
0.00242181
0.00242953
0.00253875
0.0026279
0.00264021
0.00263075
0.00257362
0.00242878
0.00243778
0.00243774
0.00238566
0.00241246
0.00248419
0.00251435
0.00250949
0.00247973
0.00241325
0.00243503
0.00242476
0.00240097
0.002405
0.00244818
0.00247637
0.00248237
0.00246073
0.00242066
0.00236259
0.00246958
0.00243957
0.00243104
0.00244349
0.0024792
0.00248785
0.00248397
0.00245974
0.00241342
0.00235034
0.00252153
0.00248022
0.0024706
0.00247289
0.00249713
0.00250454
0.00250277
0.00248509
0.00243088
0.00235584
0.00260895
0.00251847
0.00250189
0.00249627
0.0025017
0.00251221
0.0025081
0.00249267
0.00245368
0.00239976
0.00263883
0.00258391
0.00252166
0.00251063
0.00251384
0.00252518
0.00252361
0.00252513
0.0025219
0.00248475
0.00268823
0.00259286
0.00253537
0.00252191
0.0025262
0.002557
0.00259267
0.00260897
0.00258938
0.00251308
0.00267584
0.002576
0.00251948
0.00250877
0.00252648
0.00259001
0.00261867
0.00262193
0.00257361
0.00249424
0.00261855
0.00252515
0.00248576
0.00248272
0.00251274
0.00256542
0.00258098
0.00255351
0.00246712
0.00241428
0.00597233
0.00598364
0.00601397
0.00605189
0.00607189
0.00605628
0.00602619
0.00601992
0.0060344
0.00611402
0.00596274
0.00598465
0.00598826
0.00598976
0.00598871
0.00597911
0.00594817
0.00594539
0.00594967
0.00597077
0.00587423
0.00596507
0.00600455
0.00600756
0.00599944
0.00597573
0.00593967
0.00590808
0.00590783
0.00591881
0.00575951
0.00588911
0.0059865
0.00603545
0.00603804
0.00601968
0.00596835
0.00591931
0.00590361
0.00590866
0.00568872
0.00580498
0.00593972
0.00603798
0.00607667
0.00607541
0.00605138
0.00598147
0.00593212
0.00591798
0.0057045
0.00577497
0.00592084
0.00603723
0.00611021
0.00612806
0.00612075
0.0060858
0.00600852
0.00594938
0.00579165
0.0058327
0.00594829
0.00607194
0.00616725
0.00620582
0.00620287
0.00617644
0.0061041
0.0060291
0.0059517
0.00596802
0.00603762
0.00615138
0.00624502
0.00628648
0.00628391
0.00625767
0.00618477
0.00609259
0.00613622
0.00614642
0.00619665
0.00626737
0.00632961
0.00634403
0.00633483
0.00630028
0.00623213
0.00614001
0.00636142
0.00633772
0.0063522
0.0063957
0.00641289
0.00640511
0.00638038
0.0063236
0.00623947
0.0061705
0.00569239
0.00574554
0.00580804
0.00586041
0.00590954
0.00592578
0.00593307
0.00594063
0.00595673
0.00603261
0.00568329
0.00574711
0.00577254
0.00579944
0.00582425
0.00583041
0.00583287
0.00583884
0.00585731
0.00587506
0.00558565
0.00572761
0.00579565
0.00581478
0.00582474
0.00582468
0.00581724
0.00580717
0.00580982
0.00582696
0.00547413
0.00563336
0.00577198
0.00585577
0.00587163
0.00586742
0.00585096
0.00582507
0.00581661
0.0058292
0.00541133
0.00554302
0.00570959
0.00584299
0.00593091
0.00594945
0.00594003
0.00590647
0.0058623
0.00585657
0.00544595
0.00551846
0.00569052
0.00584807
0.00596683
0.00603365
0.0060405
0.00602936
0.00598804
0.00594015
0.00555102
0.00559767
0.00572905
0.00589894
0.00603526
0.00611919
0.00614189
0.00613723
0.00611249
0.00604523
0.00571896
0.00574302
0.00581826
0.00596564
0.00610334
0.00620087
0.00623415
0.00623095
0.006205
0.00612471
0.0059058
0.00591723
0.00595361
0.00604813
0.00616649
0.00624726
0.00627634
0.00627131
0.00624607
0.00617397
0.00613227
0.00610586
0.00610935
0.00614763
0.00622897
0.00628802
0.00629475
0.00628413
0.00624204
0.0061779
0.00540149
0.00548352
0.00556365
0.00562114
0.005689
0.00573559
0.00577418
0.00581286
0.00584634
0.00592149
0.00539961
0.00548117
0.00552743
0.00558441
0.00562942
0.00565553
0.00568088
0.00570356
0.00573967
0.00577342
0.00533819
0.00546985
0.00554542
0.00558906
0.00562957
0.00565973
0.00567778
0.00569104
0.00570582
0.00573875
0.005226
0.00541923
0.00555045
0.0056358
0.00568985
0.00571242
0.00571904
0.00572315
0.00573061
0.00575174
0.00518047
0.00532086
0.00553254
0.00568217
0.00577464
0.00583257
0.00584457
0.00583753
0.00581817
0.00582375
0.00523042
0.00531425
0.00551156
0.00571373
0.00586457
0.00595311
0.00599424
0.00600122
0.00599127
0.005958
0.00533726
0.00540413
0.0055682
0.00577727
0.00595558
0.00607075
0.00613487
0.00614427
0.00613605
0.00609654
0.00550705
0.00555893
0.0056797
0.00584129
0.00600754
0.00614398
0.00622246
0.00624161
0.00623676
0.00620226
0.00570806
0.00573898
0.00579887
0.00588915
0.00601891
0.00616207
0.00624565
0.00626405
0.00625701
0.00623057
0.00597383
0.00595727
0.00592901
0.00593452
0.00598786
0.0061145
0.00620158
0.00622834
0.00621961
0.00617834
0.00510179
0.0052187
0.00529908
0.00537346
0.00544718
0.00550917
0.00557423
0.00563754
0.00572612
0.00580735
0.00511957
0.00521324
0.00528263
0.00534747
0.00541107
0.00546249
0.00551894
0.00556151
0.0056221
0.0056644
0.00509061
0.00522155
0.00531031
0.00537116
0.00542994
0.00547921
0.0055306
0.00556744
0.00560773
0.00565082
0.00503414
0.00520181
0.00533589
0.00543964
0.00551939
0.00556833
0.00560318
0.00562819
0.00565226
0.00568889
0.00499265
0.00517547
0.00537205
0.00552533
0.00564551
0.0057363
0.00578467
0.00580504
0.00580939
0.00582479
0.00505626
0.00517453
0.00541324
0.0056358
0.00580183
0.00590683
0.00597667
0.00600544
0.00600873
0.00600361
0.00516832
0.00527044
0.0054909
0.00572185
0.00592331
0.0060653
0.00614414
0.00617415
0.0061842
0.00617275
0.00532005
0.00541869
0.00558825
0.00576473
0.00594903