/*--------------------------------*- C++ -*----------------------------------*\
  =========                 |
  \\      /  F ield         | OpenFOAM: The Open Source CFD Toolbox
   \\    /   O peration     | Website:  https://openfoam.org
    \\  /    A nd           | Version:  9
     \\/     M anipulation  |
\*---------------------------------------------------------------------------*/
FoamFile
{
    format      ascii;
    class       volScalarField;
    location    "79";
    object      f9.gas;
}
// * * * * * * * * * * * * * * * * * * * * * * * * * * * * * * * * * * * * * //

dimensions      [0 0 0 0 0 0 0];

internalField   nonuniform List<scalar> 
137980
(
0.00988246
0.0101546
0.0108154
0.0116375
0.0124109
0.0128601
0.0129756
0.0130119
0.0132102
0.0134406
0.00954105
0.00982448
0.0104258
0.0112764
0.0123042
0.0129966
0.013175
0.0131937
0.0133199
0.0135444
0.00942135
0.00961345
0.0100364
0.0107322
0.0116317
0.0127519
0.0133092
0.0133982
0.0133712
0.0132806
0.0092238
0.00934951
0.00963354
0.0101678
0.010854
0.0116812
0.0126426
0.0131702
0.0132407
0.0129599
0.0090552
0.00912409
0.00930778
0.00965125
0.0101557
0.0107588
0.0114149
0.0120511
0.0124218
0.0123234
0.00891588
0.00893367
0.00904642
0.0092403
0.00958906
0.0100053
0.010466
0.0109017
0.0112187
0.0112671
0.00883451
0.00880695
0.00884894
0.00897519
0.00914691
0.00944258
0.00975751
0.0100677
0.010325
0.010457
0.00881785
0.00875288
0.00875141
0.0088146
0.00892519
0.00905372
0.00926953
0.0095127
0.00972407
0.00986984
0.00887627
0.00877146
0.00873658
0.00874938
0.00882461
0.00893577
0.00904989
0.00919385
0.00934259
0.00949563
0.00905437
0.00889958
0.00883187
0.00881358
0.00883387
0.00890315
0.00903759
0.00917424
0.00929079
0.00944986
0.00959444
0.0100179
0.0106913
0.0114836
0.0122989
0.0128011
0.0129855
0.0131317
0.0135471
0.0140083
0.00935992
0.0097569
0.0103749
0.0112979
0.0123525
0.012979
0.0131678
0.013236
0.0135333
0.0139235
0.00923594
0.00954049
0.0100627
0.0108232
0.0118765
0.0129844
0.0133774
0.0134631
0.0135645
0.0138164
0.00902688
0.00923954
0.00964614
0.0102564
0.0110917
0.0121948
0.0131631
0.0134628
0.0135321
0.0134638
0.00887199
0.00899231
0.00925833
0.00971362
0.0103355
0.011131
0.0121038
0.0129334
0.0131593
0.0130359
0.0087465
0.00880409
0.00893286
0.00925651
0.00968224
0.0102391
0.0108864
0.0115566
0.0120138
0.0120289
0.00867054
0.00866829
0.00872753
0.00888005
0.00918236
0.00954753
0.00998495
0.0104323
0.0108031
0.0109732
0.00866526
0.00859828
0.00862555
0.00867092
0.00882492
0.00907882
0.00935205
0.00965448
0.00992521
0.0101196
0.00873525
0.00861497
0.00859356
0.00862743
0.00865867
0.00878812
0.00898894
0.00920507
0.00937893
0.00955415
0.00891873
0.00874607
0.00866381
0.00866118
0.00869099
0.00873976
0.00883579
0.00899706
0.00913191
0.00933888
0.00954688
0.00998518
0.010638
0.0114331
0.0122592
0.012824
0.0131976
0.0135652
0.0142608
0.0154808
0.00941781
0.00980064
0.0104231
0.0113857
0.0124275
0.0131064
0.0134459
0.0140077
0.014783
0.0157003
0.00920324
0.00958665
0.0101833
0.0110821
0.0122713
0.0132573
0.0136758
0.0140599
0.0148562
0.0156573
0.00900061
0.00927454
0.00976919
0.0105498
0.0116587
0.012932
0.0137351
0.014121
0.0147003
0.0151694
0.0087804
0.00897521
0.00935206
0.00996523
0.0108435
0.012022
0.0133118
0.0139512
0.0142991
0.0144233
0.00863653
0.00870093
0.00897804
0.00941094
0.0100597
0.0109447
0.0120166
0.013092
0.0135288
0.0136237
0.00854635
0.00852451
0.00866589
0.00895844
0.00940454
0.0100066
0.0107648
0.0115612
0.0121638
0.0124241
0.00848676
0.00842982
0.00845364
0.00865005
0.00892044
0.00931477
0.00979527
0.0103149
0.0107652
0.0110903
0.00847329
0.0084006
0.00838656
0.00844547
0.00864619
0.00887957
0.00918212
0.00950314
0.00976004
0.00999183
0.00858581
0.00845181
0.00842515
0.00844519
0.00850717
0.00866735
0.00888614
0.00910388
0.00926754
0.00944984
0.00969814
0.0100559
0.0105903
0.0113048
0.0120448
0.0126628
0.0131122
0.0132306
0.0143084
0.0147255
0.00963013
0.00992976
0.01052
0.0113841
0.0123881
0.0131847
0.0137074
0.0141517
0.0148858
0.0155834
0.0092778
0.00971414
0.010419
0.0114196
0.012597
0.0136492
0.0142212
0.0147928
0.0155799
0.0161425
0.00911422
0.00942085
0.0100938
0.0111249
0.0124712
0.0138235
0.0146863
0.0152416
0.0160479
0.0164933
0.00882435
0.0090834
0.00965958
0.0105954
0.0119427
0.0135139
0.0147757
0.0155076
0.0161656
0.0167268
0.00858117
0.00876863
0.0091983
0.00991266
0.0110863
0.0126896
0.0143669
0.0154108
0.016124
0.0166669
0.00841886
0.00850926
0.00879004
0.00932438
0.0101597
0.0113682
0.0130295
0.0146395
0.0155996
0.0161648
0.00831507
0.00830828
0.00849328
0.00883981
0.00942786
0.0102739
0.0113237
0.0125214
0.0137011
0.0145296
0.00829685
0.00823588
0.00829866
0.00852408
0.00891116
0.009488
0.0101824
0.0108559
0.0113795
0.0119173
0.00845202
0.00828611
0.00826184
0.00837968
0.00861088
0.00898659
0.00951826
0.00996037
0.0102224
0.0101916
0.00988924
0.0102392
0.0105342
0.0110473
0.0115957
0.0122271
0.0128004
0.0134598
0.0148771
0.0145527
0.00966066
0.00997282
0.0105055
0.0112603
0.0121347
0.0129031
0.013515
0.0141674
0.0153627
0.0155957
0.00928095
0.00978797
0.0105644
0.0115257
0.0126419
0.0135772
0.0141826
0.0148424
0.0159513
0.0165334
0.00916042
0.00961006
0.0104596
0.0116133
0.0129182
0.014093
0.0148444
0.0155063
0.0166059
0.0172374
0.00886066
0.00933031
0.0101811
0.0114134
0.012953
0.0143996
0.0153975
0.0160735
0.0170584
0.0175618
0.00860434
0.00894799
0.00970958
0.0109709
0.0126275
0.0143302
0.015666
0.0165255
0.0172859
0.0178119
0.00842299
0.00860479
0.00916363
0.0102662
0.0119513
0.0138946
0.0155162
0.0166665
0.0176088
0.0184749
0.00832526
0.00835473
0.00873195
0.00952616
0.0109287
0.0128338
0.0148467
0.0163191
0.0174318
0.0183467
0.00835366
0.00826619
0.00842131
0.00898524
0.0100049
0.011443
0.0131011
0.0148478
0.0160631
0.0168661
0.00857759
0.00835485
0.00833963
0.00861029
0.0093128
0.0105192
0.0119098
0.0129707
0.0128993
0.0123372
0.0102483
0.0105845
0.0106124
0.0107997
0.0112186
0.0119368
0.012972
0.0142991
0.0144694
0.01462
0.00970001
0.0100555
0.0105285
0.0111792
0.0120166
0.012922
0.0137697
0.014923
0.0160081
0.0161261
0.00928171
0.00989586
0.0106946
0.0116775
0.0127767
0.0137665
0.0145795
0.0156257
0.0170979
0.0174415
0.00916929
0.00977882
0.0107361
0.0119574
0.013332
0.0145509
0.0154661
0.0165027
0.0180504
0.0187299
0.00894795
0.00959817
0.0106224
0.0120419
0.0136775
0.0151567
0.0162556
0.0172981
0.0189569
0.0197855
0.00877382
0.00929451
0.0103284
0.0119255
0.01382
0.0155558
0.0168915
0.018125
0.0196251
0.0203033
0.00869954
0.00893869
0.00991713
0.0115759
0.0137059
0.015778
0.0174354
0.0187435
0.0201631
0.020772
0.00891599
0.00873916
0.00943451
0.0110598
0.0132849
0.0157346
0.01798
0.0197925
0.0213012
0.0221904
0.00943663
0.00890284
0.00903475
0.010377
0.0125626
0.0151974
0.0177714
0.0197285
0.0213836
0.0233023
0.0096931
0.00910217
0.0089493
0.00972979
0.0116042
0.0141998
0.0167825
0.01871
0.0194392
0.0189322
0.0107166
0.0107374
0.0107297
0.0108809
0.0113297
0.0124169
0.0153971
0.0161644
0.014591
0.0176513
0.00980756
0.0102471
0.0107446
0.0114997
0.0125662
0.0143059
0.017032
0.0175395
0.0159024
0.0181495
0.00948001
0.0102661
0.0112187
0.0124204
0.0138973
0.0159913
0.0180671
0.0187101
0.0173802
0.018873
0.00944325
0.0103508
0.0116301
0.0131976
0.0150143
0.0172822
0.0190005
0.0197161
0.0187972
0.0196144
0.00944707
0.010415
0.0119281
0.0138327
0.0159758
0.0183138
0.019843
0.0205846
0.0202177
0.0204853
0.00954945
0.0103809
0.0120701
0.0143534
0.0169553
0.019169
0.0205751
0.0213942
0.0214776
0.0213899
0.0098252
0.0102657
0.012106
0.0149107
0.0178984
0.0200549
0.0214256
0.0223064
0.0225787
0.0224611
0.0105594
0.0102135
0.0119515
0.0153544
0.0186907
0.0209593
0.0224493
0.0232539
0.0235005
0.0233691
0.0111499
0.0106742
0.0117304
0.0154113
0.0194796
0.0219053
0.023256
0.0243545
0.024842
0.0250537
0.0115521
0.011007
0.0117129
0.0150889
0.019498
0.0226393
0.025069
0.0267074
0.0275673
0.0271866
0.0111092
0.0109896
0.0110584
0.0115
0.012218
0.0151833
0.0153236
0.0148765
0.0198584
0.0320219
0.0103006
0.0109855
0.0120441
0.013699
0.0157673
0.0170453
0.0169145
0.0169004
0.0234702
0.0318958
0.0105462
0.0119863
0.0140254
0.0161668
0.0176771
0.0182719
0.0182551
0.0188936
0.0271617
0.0313962
0.0109147
0.0130201
0.0156211
0.0177082
0.0188769
0.0193969
0.0196554
0.0212217
0.0281875
0.0299871
0.0113913
0.013861
0.0167521
0.0188417
0.0198929
0.0204382
0.0208794
0.0227618
0.0284906
0.0297616
0.0119018
0.0143865
0.0175388
0.0197168
0.0207316
0.0213125
0.0219322
0.0235766
0.0284669
0.0294872
0.0124198
0.0145829
0.0180349
0.0203362
0.0214188
0.0221055
0.0226334
0.0237709
0.0282296
0.0291526
0.0128784
0.0144485
0.0182582
0.0208485
0.0220537
0.0227948
0.0233616
0.0239895
0.0277802
0.028395
0.0136359
0.0145513
0.018244
0.0210756
0.0225165
0.0233454
0.0238802
0.0242341
0.0267943
0.0280013
0.0152952
0.0151391
0.0183942
0.0215324
0.0230489
0.0239898
0.0246612
0.0248075
0.0264094
0.027468
0.0115773
0.0116378
0.0118986
0.0120712
0.0128735
0.0147736
0.015582
0.020546
0.0346908
0.0349028
0.0118183
0.0127764
0.0135282
0.0141678
0.0157246
0.0167377
0.0182229
0.0286643
0.0334114
0.0280681
0.0133831
0.0147913
0.0158407
0.0166293
0.017915
0.0192187
0.0236538
0.029759
0.0298107
0.0206889
0.0146178
0.0164456
0.0175383
0.0183974
0.0197852
0.0221069
0.0273897
0.029139
0.0240256
0.0174075
0.0158538
0.0177226
0.0188445
0.0198553
0.0216002
0.0247688
0.0276972
0.027712
0.0205021
0.0158599
0.0168312
0.0187434
0.0199012
0.0210842
0.0230511
0.0262847
0.0276133
0.0260949
0.0186249
0.0153307
0.0175645
0.0194004
0.0206208
0.0220088
0.0241731
0.026821
0.0274088
0.0249983
0.0181954
0.0154463
0.0180733
0.019892
0.0213041
0.022799
0.0248894
0.0269141
0.0271068
0.024459
0.0183653
0.0157812
0.0182087
0.0200013
0.0215689
0.0230947
0.0251938
0.026877
0.0269819
0.0245579
0.0188148
0.016328
0.0185627
0.0203246
0.0219529
0.0235316
0.0253623
0.0268118
0.0268553
0.0251122
0.0200668
0.0173107
0.0130079
0.0130971
0.0128469
0.0133364
0.0151987
0.0173814
0.0252291
0.0338308
0.032676
0.0307966
0.0132309
0.013919
0.0142715
0.0156331
0.0179051
0.0221421
0.0309388
0.0329604
0.0297355
0.0267295
0.0144767
0.015551
0.0162871
0.0180551
0.021466
0.0284225
0.0310392
0.0303573
0.0236193
0.0210068
0.0161071
0.0171494
0.0183966
0.020814
0.0258742
0.0298463
0.0301411
0.0251681
0.0198038
0.017669
0.0174434
0.0185161
0.0202303
0.0234321
0.0282763
0.0296247
0.0282152
0.0211381
0.0175455
0.0157935
0.0186781
0.0198497
0.0219571
0.0255783
0.0287654
0.0290775
0.0252269
0.0188357
0.0162271
0.0147404
0.0193733
0.0207281
0.0229927
0.0268012
0.0286619
0.0282013
0.0232849
0.0176766
0.0154849
0.0142015
0.0201226
0.0215932
0.0239652
0.0273014
0.0284202
0.0273439
0.0217738
0.0170048
0.0150756
0.0139001
0.020407
0.0217815
0.0241217
0.0272764
0.0281785
0.0269315
0.0216613
0.0170127
0.0149114
0.0138907
0.0207691
0.022242
0.0245358
0.0273231
0.0280188
0.027053
0.022406
0.0173895
0.0149504
0.0139417
0.0135769
0.0137608
0.0137946
0.0148747
0.0172705
0.0202832
0.0281868
0.0297939
0.028631
0.0286461
0.0137228
0.0142495
0.0147757
0.0166295
0.0196726
0.0239266
0.0297826
0.0302596
0.0293756
0.0292229
0.0144598
0.0153519
0.0163783
0.0186014
0.0222479
0.0281332
0.030452
0.0300776
0.0288565
0.0282258
0.0159852
0.0168284
0.0181544
0.020834
0.0260546
0.0298298
0.0304374
0.0294771
0.0274896
0.0247674
0.0174508
0.0181948
0.0200466
0.0236098
0.028661
0.0302724
0.0301898
0.0282243
0.0249199
0.0218681
0.0188359
0.0198028
0.0220554
0.0262664
0.0296888
0.0302467
0.0293849
0.026058
0.0225896
0.0194505
0.0197488
0.020855
0.0235236
0.028104
0.0300082
0.0301265
0.028531
0.0246904
0.0213217
0.0187383
0.0204946
0.0219779
0.0250461
0.0289816
0.0300604
0.0298287
0.0274472
0.0235965
0.0205542
0.0176545
0.0209871
0.0222731
0.025494
0.0292505
0.0300939
0.0297802
0.0272355
0.0234082
0.0200504
0.0174386
0.0214086
0.0229598
0.0262319
0.0295352
0.0301729
0.0298271
0.0278311
0.0237832
0.0199046
0.0167036
0.0150771
0.0153339
0.0158358
0.0170962
0.0182679
0.0206788
0.0230755
0.0221855
0.0222265
0.0225045
0.0155507
0.0160303
0.0169
0.0185186
0.0199667
0.0220826
0.0235598
0.0227038
0.0224928
0.0227405
0.017129
0.0174203
0.0184181
0.0200452
0.0216517
0.0233141
0.0239393
0.0228031
0.0225893
0.0232146
0.0195776
0.0193676
0.0202047
0.0217673
0.0233951
0.0240721
0.0239955
0.0228654
0.0228313
0.0238949
0.0221152
0.0217198
0.0222971
0.0236516
0.024543
0.0246364
0.02401
0.0231184
0.0233354
0.024697
0.0237056
0.0238001
0.0243961
0.0251985
0.0256394
0.0250859
0.024273
0.0237641
0.0244682
0.0264409
0.0245646
0.0247448
0.0257227
0.026665
0.0267128
0.0260279
0.0249812
0.0250097
0.0257184
0.0278682
0.02566
0.0258296
0.026825
0.0280106
0.0279998
0.0271284
0.0265182
0.0265086
0.0274579
0.0282928
0.0258811
0.0261185
0.027035
0.0286144
0.0290829
0.0288612
0.028026
0.028121
0.0283589
0.0291192
0.0261669
0.0266571
0.0276072
0.0290884
0.0298213
0.0299384
0.0297993
0.0291768
0.0298763
0.028525
0.0242198
0.0257484
0.0261959
0.026733
0.026859
0.026853
0.0252285
0.0239677
0.0237201
0.0233354
0.0248161
0.025114
0.0257598
0.0267014
0.0271587
0.0277231
0.0276475
0.0264301
0.0254202
0.0248179
0.0252303
0.0252861
0.0256805
0.0263771
0.0269813
0.0278342
0.0285964
0.0284666
0.0276037
0.0261861
0.0255783
0.0254567
0.025669
0.0262253
0.0268181
0.0274532
0.0284658
0.0294266
0.0292105
0.0282825
0.0251803
0.0249038
0.0250447
0.0256323
0.0264377
0.0272872
0.0279358
0.0295068
0.0302141
0.0299015
0.0238467
0.0240744
0.0246724
0.0254752
0.0260959
0.0267322
0.0274985
0.0291652
0.0308429
0.030386
0.0232005
0.0237123
0.0245707
0.0254158
0.0259361
0.0264939
0.0271297
0.0284124
0.0312055
0.0310363
0.022639
0.0235344
0.0244665
0.0253443
0.0258414
0.0264744
0.0269602
0.0280036
0.0311148
0.0314292
0.0224995
0.0236566
0.0246095
0.0255153
0.0261116
0.0273386
0.0275081
0.0280989
0.030691
0.0322211
0.02291
0.0243579
0.0253411
0.0261573
0.0280199
0.0294857
0.0292821
0.0284474
0.0310434
0.0315918
0.0226755
0.0230109
0.0229078
0.0228799
0.0230959
0.0236753
0.0243202
0.0246028
0.0245945
0.0247198
0.0216848
0.0215305
0.0215947
0.0218389
0.0222764
0.0228941
0.0234196
0.0240217
0.0243291
0.0249461
0.0209665
0.0208111
0.0209936
0.0214609
0.021954
0.0225139
0.0230086
0.023589
0.0240184
0.0249357
0.0200412
0.0202503
0.0207559
0.021393
0.0218717
0.0223932
0.0227998
0.0232344
0.0237366
0.0248232
0.0195892
0.0201183
0.0208213
0.0214846
0.022065
0.022567
0.0227522
0.0230651
0.0235791
0.0247842
0.0194522
0.0203602
0.021228
0.0221661
0.0228737
0.0233722
0.0233519
0.0233314
0.023601
0.0252284
0.0198878
0.021107
0.0222065
0.0233324
0.0241517
0.0243584
0.0241705
0.023811
0.0239252
0.0254817
0.0213115
0.0223229
0.0236379
0.0250725
0.0253855
0.0250505
0.0244046
0.0239316
0.0240657
0.0255185
0.0218809
0.0230107
0.0252201
0.0262752
0.0259602
0.0251991
0.0242692
0.0236101
0.0240921
0.0261944
0.0219242
0.0240705
0.02647
0.0268765
0.0261499
0.0250946
0.0240213
0.0239566
0.0249967
0.0254444
0.0231977
0.0230236
0.0227877
0.0225853
0.0223733
0.0220979
0.0218306
0.0215732
0.0212477
0.0200542
0.0232163
0.0229856
0.0226969
0.0224496
0.0220875
0.021762
0.0215298
0.0212898
0.0206833
0.0203284
0.0231221
0.0228718
0.0226129
0.0223308
0.0218931
0.021486
0.0211986
0.0208781
0.0201317
0.0195179
0.0230306
0.0228172
0.0225833
0.0222681
0.0218036
0.0213747
0.0210189
0.0204591
0.0195175
0.0187528
0.0228867
0.0227758
0.0225847
0.0222595
0.0218236
0.021362
0.0207269
0.0198175
0.0183662
0.0168537
0.0227654
0.0227583
0.0226152
0.0223735
0.0220645
0.0213476
0.0201305
0.0183444
0.0163072
0.0149698
0.0226774
0.0227568
0.0226227
0.0226389
0.0221775
0.0207383
0.0188968
0.0167344
0.0151017
0.0141285
0.0226049
0.0227297
0.0225611
0.0228068
0.022089
0.019867
0.0178087
0.0159761
0.0146597
0.0138689
0.0224081
0.0226022
0.0224086
0.0228036
0.0216804
0.019099
0.0172468
0.0157613
0.0149958
0.0145243
0.0222177
0.0224137
0.0216564
0.0220882
0.0207946
0.0186917
0.0174923
0.0163658
0.0156054
0.0148466
0.0229439
0.022222
0.0213241
0.0204689
0.019671
0.0190437
0.0176475
0.0172118
0.018716
0.0185105
0.0229741
0.0222511
0.0212382
0.0202132
0.019284
0.0183656
0.0170793
0.0171056
0.0179108
0.0178021
0.022363
0.0216251
0.020592
0.0195997
0.0186827
0.0177222
0.0167114
0.0164616
0.0174555
0.0176577
0.0220638
0.0213558
0.0202877
0.0192602
0.0182997
0.0172683
0.0163514
0.0160546
0.0166655
0.017139
0.0215475
0.0207878
0.0197476
0.0187758
0.0177949
0.0167633
0.0160187
0.0157498
0.0159804
0.0161775
0.0211546
0.0204261
0.0194276
0.0184845
0.0173937
0.0163765
0.015776
0.0154793
0.0154382
0.0153127
0.0207015
0.0198666
0.0189446
0.0180877
0.0170681
0.0161958
0.0156026
0.0152095
0.0149464
0.0145629
0.020249
0.0193776
0.0184865
0.0177919
0.0169686
0.0161316
0.0155193
0.0150047
0.0145862
0.0141586
0.0197915
0.0187264
0.0178717
0.0175515
0.0169345
0.0161791
0.0156107
0.0150516
0.0145431
0.0140632
0.0193109
0.0181552
0.0173362
0.0171413
0.0167722
0.0163668
0.015884
0.0152695
0.014633
0.0138854
0.0210755
0.0215371
0.0212552
0.0209317
0.0207479
0.0212824
0.0219642
0.0228989
0.0228323
0.01984
0.0207532
0.0214469
0.0212896
0.0208516
0.0201798
0.0204924
0.021168
0.0221945
0.0228616
0.0217243
0.0203975
0.0212359
0.021121
0.0206961
0.0198003
0.0198481
0.0203534
0.0212009
0.0223142
0.0221133
0.0202914
0.0211689
0.0210473
0.0204707
0.0194039
0.0191171
0.0195616
0.0204394
0.0216111
0.02172
0.0202639
0.02107
0.0208279
0.0200294
0.0188979
0.018345
0.018825
0.0198894
0.021238
0.0215463
0.0206639
0.0209937
0.0205104
0.0193897
0.0182161
0.0176037
0.0180977
0.0194001
0.0211377
0.0211915
0.0208454
0.0206341
0.0198251
0.0185451
0.01743
0.0168402
0.0173483
0.0190057
0.0211606
0.0203613
0.0207733
0.0201004
0.0189781
0.017716
0.0165812
0.0160333
0.0164805
0.0181986
0.0209873
0.0211089
0.0201657
0.0191471
0.018172
0.016829
0.0156118
0.0151491
0.0154627
0.0166121
0.0196107
0.0209504
0.0192954
0.0186736
0.0174049
0.0158397
0.0146169
0.0143341
0.0145697
0.0154686
0.0179835
0.0182901
0.0194366
0.0215526
0.0231313
0.0241963
0.0244427
0.024085
0.0214929
0.0203254
0.0196793
0.0183956
0.0194991
0.0197436
0.0209971
0.0230134
0.0246527
0.0251487
0.0241084
0.0201783
0.018809
0.0178484
0.0182617
0.0190297
0.0198548
0.0209856
0.0224665
0.0252392
0.025954
0.0234038
0.0193929
0.0180603
0.0177378
0.0184048
0.0193761
0.0203059
0.0212404
0.0228103
0.0259813
0.0271356
0.0212897
0.0188356
0.0174811
0.0182029
0.0192556
0.0201199
0.0207278
0.021789
0.0234002
0.0269959
0.0251402
0.0202986
0.0173684
0.018334
0.0197721
0.0204764
0.0206158
0.0210389
0.0222897
0.0255466
0.026372
0.0226279
0.0175695
0.018988
0.0202516
0.0206896
0.0206375
0.0206922
0.021389
0.0235673
0.0263311
0.0230881
0.0184286
0.0199648
0.0209994
0.0209376
0.0206717
0.0202263
0.0206235
0.0220539
0.0257505
0.0244315
0.019791
0.0212766
0.0213432
0.0209759
0.0203206
0.0195007
0.0197566
0.0208025
0.0241354
0.0250003
0.0215311
0.0218313
0.0214185
0.0202905
0.0191678
0.0181865
0.0184156
0.0192287
0.0210805
0.0203455
0.0164274
0.0144267
0.0136275
0.0137349
0.0140442
0.0146586
0.0158139
0.0163042
0.0165631
0.0173484
0.015992
0.014542
0.0146073
0.0161205
0.0174622
0.0179752
0.0180761
0.0179689
0.0178316
0.0177281
0.0153829
0.0153136
0.0174352
0.018692
0.0190617
0.0191147
0.0189082
0.018698
0.0186169
0.0187251
0.0161092
0.0175829
0.0190949
0.0195068
0.0195552
0.019294
0.0188459
0.018558
0.0184924
0.0184334
0.0174999
0.0189883
0.0196141
0.0197347
0.0196321
0.0191825
0.0186401
0.0183897
0.0179705
0.0168543
0.0184269
0.0196171
0.0199664
0.0198941
0.0195682
0.0189324
0.0182647
0.0179524
0.0172253
0.0165062
0.0187646
0.0196937
0.0203781
0.0203088
0.0197206
0.019028
0.0182548
0.0175868
0.0168107
0.0165512
0.0186342
0.0194181
0.0204725
0.0208169
0.0203439
0.0194616
0.0186041
0.0178271
0.0166706
0.0163976
0.0180578
0.0187751
0.0198676
0.0208018
0.0210384
0.0206578
0.0198722
0.0189724
0.0169128
0.0172548
0.0175912
0.0181793
0.0190348
0.0201034
0.0208821
0.0212072
0.0211799
0.0207473
0.0180183
0.0170913
0.0135643
0.0132789
0.0129606
0.0125982
0.0127548
0.0136
0.0145358
0.01536
0.0159921
0.0159263
0.0137882
0.0133716
0.0131364
0.0129734
0.0131571
0.0139955
0.0149507
0.015429
0.0155952
0.0157958
0.0138514
0.0135594
0.0132786
0.0132268
0.0134589
0.0141729
0.0151957
0.015668
0.0159666
0.016411
0.0138566
0.0137475
0.0135743
0.013518
0.013762
0.0144069
0.0154015
0.0158933
0.0161516
0.0165919
0.0137468
0.0137447
0.01376
0.013801
0.0139853
0.0144712
0.0154468
0.0159326
0.0161174
0.0164386
0.0134877
0.0136478
0.0137737
0.0139715
0.0142267
0.014496
0.0153884
0.0159071
0.0159947
0.0162484
0.0134574
0.0135298
0.0138035
0.0141491
0.0144273
0.0145658
0.0152062
0.0158493
0.015897
0.0164964
0.013621
0.0136857
0.0138741
0.0141885
0.0146004
0.0147394
0.0149483
0.0155348
0.0156954
0.0164117
0.0134256
0.0135358
0.0138131
0.0143559
0.0148392
0.0150518
0.0150727
0.0152395
0.0152653
0.0157181
0.0137279
0.0139411
0.0145164
0.0155917
0.0163103
0.0166742
0.0165731
0.0161218
0.0159497
0.0157851
0.0134178
0.0134176
0.013057
0.0126033
0.0123741
0.0122935
0.0123345
0.0125377
0.0124479
0.0120969
0.0131525
0.0134517
0.0130351
0.012748
0.0126289
0.012344
0.0119192
0.0117669
0.0111876
0.0109258
0.0128599
0.0132615
0.0128277
0.0124066
0.0123092
0.0122589
0.0115193
0.0113573
0.0109931
0.0108858
0.0117968
0.0125022
0.0125988
0.0120605
0.0117836
0.0118806
0.0115456
0.0113715
0.0109982
0.0110067
0.0117737
0.0114564
0.01176
0.0119197
0.011731
0.0117097
0.0117648
0.0115243
0.0111139
0.0111898
0.0118048
0.0112793
0.0112272
0.0112528
0.0116561
0.0117345
0.0117987
0.0117074
0.0114182
0.0112885
0.0117611
0.0112292
0.0112496
0.0112488
0.0110309
0.0109995
0.0110305
0.0115756
0.0114494
0.0113116
0.011635
0.011143
0.0109544
0.0107217
0.0106583
0.0105039
0.0107486
0.0113458
0.0112233
0.0111403
0.0111788
0.0108786
0.0107612
0.0107351
0.0108373
0.0107714
0.0108502
0.0113511
0.0119203
0.0117351
0.0106076
0.0105348
0.0104639
0.0105091
0.0108232
0.0112201
0.0109291
0.0119848
0.0125279
0.0112809
0.00734277
0.00734125
0.00735588
0.00732492
0.00731694
0.00732858
0.0073535
0.00734659
0.00732209
0.0072639
0.0073242
0.00734702
0.007354
0.00732629
0.00730252
0.00733223
0.00736843
0.00737508
0.00743147
0.00741822
0.00724294
0.00726996
0.00728759
0.00726769
0.00726577
0.00723314
0.00729971
0.00735671
0.00737593
0.00738415
0.00720731
0.00720579
0.00720746
0.00720817
0.00720757
0.00722954
0.00726301
0.00726386
0.0073072
0.00729462
0.00726425
0.00722443
0.00720685
0.00719522
0.0071927
0.00720054
0.00726146
0.00725613
0.00723732
0.00726091
0.00737045
0.00733844
0.00729598
0.00726665
0.00722136
0.00720456
0.00721599
0.00723836
0.00724523
0.00726391
0.00740407
0.00736153
0.00732986
0.00730783
0.00728957
0.00724645
0.00722446
0.0072302
0.0072398
0.00728265
0.00721242
0.007294
0.00731586
0.00730794
0.00729898
0.00727221
0.00724824
0.00725016
0.00726224
0.00726614
0.00712172
0.00729626
0.00730678
0.0073044
0.00729728
0.00727548
0.00726284
0.0072475
0.00720642
0.0072854
0.00706835
0.00725347
0.00727093
0.00727512
0.0072792
0.00727383
0.00724549
0.00721763
0.00722407
0.00726742
0.00664169
0.00661202
0.00668321
0.0067431
0.00683556
0.00683327
0.00685562
0.00694469
0.00693928
0.00699297
0.00672674
0.00664213
0.00665642
0.00668156
0.00676145
0.00680464
0.00698919
0.00698034
0.0069883
0.00715477
0.00713881
0.00691596
0.00682673
0.00679773
0.00690642
0.00707698
0.00704663
0.00701011
0.00704327
0.00720017
0.0073372
0.00737058
0.00734147
0.00727019
0.00722153
0.00717002
0.0070984
0.00705902
0.00706171
0.007142
0.00695481
0.00711106
0.00730713
0.0074132
0.00744612
0.00741582
0.00716212
0.00706402
0.00705363
0.00705725
0.00727769
0.00728849
0.0073185
0.00739866
0.00747289
0.00751271
0.00749427
0.00722416
0.0070484
0.00704201
0.0074031
0.00744919
0.00745857
0.00746183
0.00748423
0.00753415
0.00757888
0.00753733
0.00722835
0.00719261
0.00732486
0.0073639
0.00739389
0.00743628
0.00748357
0.00753447
0.00762268
0.00757914
0.00724891
0.00722701
0.00742992
0.00744543
0.00740818
0.0074427
0.00749077
0.00757033
0.00767977
0.00728774
0.00721922
0.00718197
0.00725191
0.00752245
0.00747338
0.00750306
0.00756955
0.00767727
0.00724919
0.00717073
0.00713434
0.00706871
0.00670949
0.00674253
0.00703997
0.00695063
0.0069627
0.00714723
0.00725694
0.00725831
0.00722517
0.00705632
0.00705438
0.00708454
0.0070786
0.00695902
0.00702289
0.00719127
0.00725766
0.00723157
0.0071501
0.00695492
0.00710554
0.00709196
0.00703786
0.00706382
0.00718764
0.00723739
0.00725264
0.00719137
0.0071007
0.00694936
0.00721232
0.00712154
0.00709636
0.00713583
0.00723975
0.00726842
0.00726475
0.00720697
0.00709978
0.00696563
0.00734263
0.0072155
0.0071828
0.00717937
0.00723826
0.00726779
0.00727238
0.00725123
0.00714041
0.00697123
0.00753857
0.00730022
0.0072495
0.00723016
0.00723687
0.00725877
0.00725071
0.00723509
0.00717849
0.00707761
0.00759633
0.00746634
0.0072988
0.00726833
0.00726969
0.00728183
0.00727239
0.00728915
0.00730985
0.00725556
0.00769731
0.0074607
0.00731645
0.00727991
0.00727652
0.00733016
0.0074094
0.00745979
0.00744916
0.00731211
0.00764977
0.00739846
0.00726605
0.00723792
0.00726704
0.00738312
0.00745481
0.00747749
0.00740531
0.00727148
0.00746814
0.00723725
0.00716523
0.00716615
0.00722925
0.00732981
0.00736862
0.00731749
0.00715331
0.00708005
0.0124075
0.0126314
0.0128689
0.0129635
0.0130264
0.0130491
0.0130643
0.0130624
0.0130864
0.0131826
0.0124186
0.0125684
0.0127309
0.0129097
0.013003
0.0130388
0.0130474
0.0130624
0.0130709
0.0131001
0.012286
0.0125167
0.0127205
0.0128608
0.0129808
0.013036
0.0130479
0.0130523
0.0130697
0.0130999
0.0121613
0.0124094
0.0126587
0.0128701
0.0129809
0.0130477
0.0130723
0.0130727
0.0130805
0.0131072
0.0120608
0.0123107
0.0125746
0.0128235
0.0130083
0.0130844
0.0131113
0.0131246
0.0131359
0.0131406
0.0120943
0.0122743
0.0125692
0.0127962
0.0130044
0.0131251
0.0131741
0.0131845
0.0131905
0.0131874
0.0122273
0.0123504
0.0126042
0.0128439
0.0130621
0.0132273
0.0132685
0.0132663
0.0132554
0.0132489
0.0124586
0.0125191
0.0127023
0.0129605
0.0131895
0.0133499
0.0133926
0.0133796
0.0133415
0.0133057
0.0126834
0.0127429
0.0129396
0.0131579
0.0133252
0.0134383
0.0134658
0.0134479
0.0133999
0.0133549
0.0128717
0.0129305
0.0131416
0.0133444
0.0134491
0.0134975
0.0134927
0.0134665
0.0133907
0.0133661
0.0120491
0.0122891
0.0125178
0.0126372
0.0127239
0.0128061
0.0128635
0.0129453
0.0129771
0.0130741
0.0120731
0.0122537
0.0123955
0.0126021
0.0127366
0.0128071
0.0128514
0.0128953
0.0129421
0.0130006
0.0119636
0.0122364
0.0124293
0.0125714
0.0127091
0.0128078
0.0128559
0.0128898
0.012912
0.0129753
0.0118778
0.012131
0.0124006
0.0126085
0.0127469
0.0128275
0.0128887
0.0129181
0.012936
0.0129918
0.0117914
0.0120546
0.0123311
0.0125843
0.012798
0.0129257
0.0129603
0.0129792
0.0129992
0.0130393
0.0118532
0.0120298
0.0123418
0.0126061
0.0128268
0.0129991
0.0130847
0.0131032
0.0131085
0.0131259
0.012005
0.0121293
0.0124068
0.0126999
0.0129364
0.0131008
0.0131987
0.0132312
0.0132333
0.013232
0.0122321
0.0123071
0.0124843
0.0127601
0.0130304
0.0132325
0.0133391
0.0133641
0.0133474
0.0133083
0.0124755
0.0125209
0.0126318
0.0128645
0.0131045
0.0132932
0.0133971
0.0134118
0.0133959
0.013353
0.0126564
0.0126693
0.0127434
0.0129337
0.0131401
0.0132923
0.0133644
0.0133893
0.0133648
0.0133419
0.011675
0.0119067
0.0121446
0.012265
0.0123775
0.0125067
0.0126251
0.0127611
0.0128544
0.0129257
0.0116972
0.011891
0.0120624
0.0122925
0.0124503
0.0125411
0.0126269
0.0127055
0.0127649
0.0128666
0.0116715
0.0119021
0.0120796
0.0122512
0.0124364
0.0125798
0.01266
0.0127196
0.0127606
0.0128582
0.0115994
0.0118977
0.0121226
0.0123192
0.0125005
0.0126289
0.012708
0.0127763
0.0128118
0.0128851
0.0115548
0.0118311
0.0121656
0.0124194
0.0126087
0.0127668
0.01286
0.0128863
0.0129135
0.0129682
0.011644
0.0118421
0.0121917
0.0125129
0.012754
0.0129202
0.0130361
0.0130927
0.0131058
0.0131207
0.0118008
0.0119597
0.012292
0.0126284
0.012905
0.0130946
0.0132097
0.013259
0.0132653
0.0132578
0.012018
0.0121505
0.0123908
0.0126765
0.0129624
0.0132012
0.0133476
0.0133984
0.0133953
0.0133711
0.0122802
0.0123577
0.0124856
0.0126835
0.0129396
0.0131993
0.0133651
0.0134164
0.0134124
0.0133919
0.0125536
0.0125441
0.0125582
0.0126218
0.012805
0.0130378
0.0132234
0.0133111
0.0133243
0.0133139
0.0112621
0.0115414
0.011745
0.0118945
0.0120306
0.0121721
0.0123548
0.0125009
0.0127353
0.0128039
0.0113093
0.011528
0.0117399
0.0119465
0.0121259
0.0122554
0.0123888
0.0125015
0.012618
0.0127198
0.0113172
0.0115552
0.0117764
0.0119894
0.0121808
0.0123298
0.0124598
0.012548
0.0126256
0.0127345
0.0113448
0.0116001
0.0118308
0.0120579
0.0122954
0.0124577
0.0125662
0.0126488
0.0127056
0.0127942
0.011346
0.0116693
0.0119684
0.0122275
0.0124514
0.0126605
0.0127961
0.0128587
0.0128891
0.0129465
0.0114699
0.0117321
0.0121274
0.012468
0.0127213
0.0128886
0.0130293
0.0131017
0.0131273
0.0131427
0.0116454
0.0118841
0.0122728
0.0126349
0.0129287
0.0131251
0.0132457
0.0133194
0.0133443
0.0133377
0.0118451
0.0120568
0.0123529
0.0126515
0.0129564
0.0132087
0.0133704
0.0134436
0.0134638
0.0134577
0.0120915
0.0122245
0.0123566
0.0125524
0.0127958
0.0130669
0.013288
0.0133869
0.013399
0.0133924
0.012466
0.0124539
0.012413
0.0124236
0.0125038
0.0127185
0.0129338
0.0130975
0.0131926
0.01321
0.0108843
0.0111437
0.0113449
0.0115094
0.0116734
0.0118521
0.0120808
0.0122606
0.0125544
0.012646
0.0109478
0.0111802
0.0113958
0.0116034
0.0118112
0.0119864
0.0121557
0.0122928
0.0124552
0.0125888
0.0109813
0.0112897
0.0115125
0.0117302
0.0119251
0.0120992
0.0122638
0.0123853
0.0124946
0.0126179
0.0110841
0.0113209
0.0116649
0.0119602
0.0121535
0.012332
0.0124599
0.0125379
0.0126059
0.0127093
0.0111821
0.011483
0.0117856
0.0121194
0.012384
0.0126082
0.0127652
0.0128469
0.0128898
0.0129429
0.0113261
0.0116598
0.0120558
0.0124166
0.0126802
0.0128715
0.0130228
0.0131222
0.0131788
0.013205
0.0115377
0.0118788
0.0122897
0.0126603
0.0129627
0.0131632
0.0132837
0.0133585
0.0134012
0.0134053
0.0117421
0.0120458
0.0123415
0.0126485
0.0129436
0.0131983
0.0133603
0.0134391
0.0134666
0.0134774
0.011966
0.0121275
0.0122568
0.0123857
0.012622
0.0128888
0.013118
0.0132775
0.0133192
0.0133407
0.0123895
0.0123859
0.0123122
0.0122553
0.0122733
0.0123793
0.0125887
0.0127331
0.0128758
0.0129548
0.0105173
0.0107421
0.0109505
0.0111229
0.0113414
0.0115361
0.0118054
0.0120452