/*--------------------------------*- C++ -*----------------------------------*\
  =========                 |
  \\      /  F ield         | OpenFOAM: The Open Source CFD Toolbox
   \\    /   O peration     | Website:  https://openfoam.org
    \\  /    A nd           | Version:  9
     \\/     M anipulation  |
\*---------------------------------------------------------------------------*/
FoamFile
{
    format      ascii;
    class       volScalarField;
    location    "79";
    object      interfaceCompositionPhaseChange:dmdtf.gasAndLiquid;
}
// * * * * * * * * * * * * * * * * * * * * * * * * * * * * * * * * * * * * * //

dimensions      [1 -3 -1 0 0 0 0];

internalField   nonuniform List<scalar> 
137980
(
0.00326914
0.00102139
-0.000431693
0.00134948
0.00235389
0.00188974
0.00134407
0.000760732
9.83009e-05
-4.12931e-05
0.00312058
0.00160487
-0.000381966
0.000422343
0.00197609
0.00150543
0.00102373
0.00053975
-3.07678e-05
-6.75226e-05
0.00294997
0.00153136
0.000441714
0.000332632
0.00134015
0.00182336
0.000933141
0.00044958
4.14068e-05
-4.09618e-05
0.00196446
0.00129497
0.000752305
0.00034583
0.000589862
0.00132149
0.0015183
0.000748378
0.000359958
0.000120857
0.00165024
0.00163547
0.00144862
0.000950157
0.000569982
0.000685914
0.000999351
0.00121935
0.00126464
0.00123005
0.00205126
0.00222606
0.00220815
0.00172506
0.0011837
0.000902514
0.00104037
0.00105224
0.000969375
0.000954339
0.00249064
0.00306195
0.00330595
0.00279067
0.00194634
0.00154304
0.00162596
0.00179495
0.00170649
0.00161539
0.00341992
0.00452069
0.00511276
0.0045512
0.00294575
0.00236651
0.00230918
0.00279456
0.00280618
0.00289727
0.00475677
0.00594512
0.00615558
0.00560251
0.00406489
0.00347231
0.00324861
0.00370235
0.00356136
0.00428405
0.00612104
0.00654253
0.00657706
0.00567928
0.00463407
0.00419813
0.00389959
0.00389508
0.00362899
0.0045453
0.00335726
0.00105821
0.000499588
0.00251516
0.00319809
0.00261556
0.0019139
0.00119906
0.000299928
-1.04687e-05
0.00243919
0.00130386
0.00021885
0.00147837
0.00260645
0.00202292
0.00153474
0.000845224
-5.87372e-05
-8.93964e-05
0.00258368
0.00161155
0.00113956
0.00150963
0.0022703
0.0019864
0.0011648
0.000541122
-4.76462e-05
-7.7392e-05
0.00196997
0.00160925
0.00129303
0.00106814
0.00150854
0.0017462
0.000769476
0.000130741
5.82177e-05
-3.79842e-05
0.0019541
0.00195667
0.00176136
0.00145508
0.0013019
0.0013743
0.00121707
0.00055755
0.000122792
0.000276512
0.00223842
0.00239488
0.00232308
0.00199195
0.00166955
0.00155426
0.00137654
0.00112441
0.000905219
0.00113942
0.00254699
0.00297872
0.00315002
0.00267296
0.00220346
0.00203185
0.00195069
0.00176124
0.00141578
0.0015329
0.00312622
0.00379442
0.00422546
0.0037974
0.00289463
0.00262232
0.00266632
0.00272042
0.00248298
0.00250105
0.00403079
0.00478301
0.00498292
0.00459992
0.00371363
0.00341521
0.00345401
0.00373126
0.00347073
0.0035016
0.00481255
0.00510682
0.0050862
0.00454657
0.00409188
0.0039017
0.00392723
0.00394316
0.00357103
0.00381085
0.00251153
0.00169731
0.0012951
0.00314179
0.00416549
0.00404553
0.00380887
0.00194016
0.000717399
0.000115667
0.00209787
0.00143722
0.00150958
0.00226851
0.0030981
0.00269156
0.00227772
0.00182319
0.000311321
5.03382e-05
0.002694
0.00174012
0.00155117
0.00200354
0.00224178
0.00200922
0.00128364
0.000767355
1.39474e-05
-7.42543e-05
0.00226603
0.0019293
0.00148098
0.00129298
0.00145452
0.00116932
0.000438092
3.28703e-05
-5.84462e-05
-0.000147373
0.00230562
0.00222681
0.00190271
0.00154767
0.00114226
0.000642476
0.000115546
7.83968e-05
5.93624e-06
-6.35668e-05
0.00244442
0.00261009
0.00244227
0.00205301
0.00160136
0.00102571
0.000305292
6.19086e-05
4.14877e-05
1.88754e-05
0.00257346
0.00297309
0.00307528
0.00262868
0.00225637
0.00179727
0.00112925
0.000428767
6.01682e-05
0.000258856
0.00297643
0.00350455
0.00381161
0.00356157
0.00284187
0.00260938
0.00223279
0.00169607
0.00117856
0.00133173
0.00344013
0.00395816
0.00417429
0.00403548
0.00355852
0.00326212
0.00325161
0.00311927
0.00279336
0.00292765
0.00380968
0.00400197
0.00409359
0.00392875
0.003852
0.0038535
0.00385579
0.00367102
0.00329392
0.00379791
0.00209508
0.00196518
0.00221473
0.00393977
0.00598641
0.00744954
0.00771126
0.00287099
0.00122989
0.00302129
0.00184865
0.00225084
0.0031643
0.00397289
0.00561738
0.00636595
0.00625921
0.00406238
0.0013657
0.00112553
0.00214528
0.00156793
0.00203845
0.0027044
0.00348446
0.0043034
0.00410771
0.0031614
0.00152589
0.000219621
0.00175663
0.00159408
0.0011676
0.00122096
0.00164588
0.00222068
0.00219522
0.00144139
0.000548838
3.6152e-05
0.00186916
0.0015768
0.0011623
0.000689658
0.000551047
0.000719355
0.000648043
0.000252907
2.28283e-05
-8.36199e-06
0.00202283
0.00192996
0.00157577
0.000947924
0.000301069
3.42805e-05
1.95919e-05
3.72626e-05
-5.23841e-06
-6.23552e-05
0.00221067
0.002348
0.00213259
0.0016213
0.000886498
8.53296e-05
-2.2678e-05
-3.52531e-05
-5.67639e-05
-7.37135e-05
0.00244269
0.00286813
0.00299485
0.00246993
0.00181932
0.000864259
7.37095e-05
-2.16061e-05
-5.41393e-05
-6.13117e-05
0.00279018
0.00322557
0.00345913
0.00323377
0.00263003
0.00192743
0.00112197
0.00051545
0.000103633
0.000223133
0.00306423
0.00313774
0.00340647
0.00348913
0.00340533
0.00323878
0.00297
0.0022915
0.00123204
0.0018157
0.00191947
0.00177784
0.00299468
0.00438755
0.0061382
0.00833266
0.0096623
0.00487152
0.00284987
0.00307907
0.002363
0.00449229
0.00491874
0.00548013
0.00695502
0.00900679
0.00998083
0.00701869
0.00198569
0.00171633
0.0014538
0.00249144
0.00335186
0.00435397
0.00605003
0.00842801
0.00877918
0.00668555
0.00248295
0.000587831
0.00138086
0.00180744
0.00182309
0.00246569
0.00397507
0.00637155
0.00706608
0.00560307
0.00288057
0.000164451
0.00118226
0.00132035
0.00120974
0.00115599
0.0018542
0.00343323
0.00459816
0.00378335
0.00194903
7.78816e-05
0.00136883
0.00139049
0.00111652
0.000557999
0.000442789
0.00101498
0.00200836
0.00165895
0.000566146
7.39329e-05
0.00135763
0.00161
0.00138066
0.000593715
-0.000210457
-0.000191561
0.00037397
0.000149798
0.000125314
6.48258e-05
0.00169628
0.00196492
0.00189533
0.000978304
-0.000145026
-0.000399806
-3.22433e-05
8.15838e-05
8.35025e-05
5.38574e-05
0.00210426
0.00257774
0.00241927
0.0017576
0.000452962
-0.000280791
-0.000171371
-5.49088e-05
-6.44009e-05
-9.68186e-05
0.00221715
0.00243843
0.0025407
0.00238187
0.00165208
0.000697843
0.000247456
-7.30507e-05
-8.52558e-05
-0.00105441
0.0025807
0.00249187
0.0028522
0.00422248
0.00555246
0.00840481
0.0130319
0.00884828
0.0014311
-0.00224919
0.00417374
0.00567946
0.00568155
0.00572031
0.00737587
0.0109383
0.013594
0.00980019
0.00099631
-0.00169356
0.00139661
0.00272242
0.00385656
0.00476975
0.00708992
0.0114744
0.0131236
0.0098917
0.00176679
-0.000641706
0.00059253
0.00133066
0.00158565
0.00263197
0.00535358
0.010455
0.0118018
0.00900355
0.00294252
-0.000112578
-6.73806e-06
0.000528981
0.000649175
0.000834856
0.00277595
0.0081423
0.00974695
0.00735575
0.00260427
-3.00058e-05
-7.59479e-05
0.000201993
0.000184616
-0.000186329
0.000671823
0.00587254
0.00800088
0.00595129
0.00175287
-2.45883e-05
-0.000109441
0.000139596
9.02099e-05
-0.000643275
-0.000382706
0.00396676
0.00549813
0.00348229
0.000497946
-3.34718e-05
-0.000190424
0.000436128
0.000167772
-0.000691695
-0.000838968
0.0018586
0.00287313
0.000510344
8.53495e-05
-1.03464e-05
-0.00088572
0.000332642
0.00032636
-0.000489951
-0.000747248
9.28372e-05
0.00156515
0.00018511
0.000117708
0.000115302
-0.00156056
-2.095e-06
0.000171106
-0.000415145
-0.000646807
-6.72445e-05
0.00256102
0.00124092
0.00010137
-0.000351336
0.0033985
0.00280524
0.00281651
0.00389181
0.00415037
0.00830024
0.0152247
0.00240879
-0.00991613
-0.000518054
0.00298989
0.00511174
0.00516571
0.00529289
0.00649442
0.0133842
0.011663
-0.00147589
-0.00977589
-0.000487873
4.55548e-06
0.0015818
0.0030814
0.00437781
0.00815133
0.0131963
0.00864255
-0.0049217
-0.00935087
-0.000470347
-0.00112631
-0.000360414
0.000185544
0.00203823
0.00792908
0.0113462
0.00576081
-0.00735761
-0.0073113
-0.000488198
-0.00181083
-0.0016527
-0.00132984
-2.34523e-05
0.0076932
0.00902105
0.00295872
-0.0076942
-0.00402624
-0.000512664
-0.00218875
-0.00257747
-0.00276682
-0.000934975
0.00727894
0.00666542
0.000850331
-0.00674359
-0.000393836
-0.000531457
-0.00197334
-0.00324664
-0.00414147
-0.000634973
0.00640469
0.00480981
-0.000257986
-0.00374655
-0.000391073
-0.000520258
-0.00189766
-0.00379223
-0.005382
-0.00131312
0.00450444
0.00285563
-0.000558714
-0.000221683
-0.000370778
-0.000488437
-0.00289649
-0.00383379
-0.00534853
-0.00153275
0.00257811
0.00111449
-2.7432e-05
-0.000168438
-0.000276585
-0.000387292
-0.0031748
-0.00316368
-0.00597569
-0.00216088
0.00193239
0.000223222
2.09558e-05
-9.52264e-05
-0.000197637
-0.00045634
0.0032375
0.00106725
0.00105879
0.0016324
0.00159699
0.00293822
-0.00421623
-0.012409
-0.000741856
-0.000456557
-0.0023814
0.000665012
0.00206504
0.00251014
0.00348203
-0.00154373
-0.00968609
-0.000517
-0.000631338
-0.000393188
-0.00387922
-0.00237057
0.00144778
0.00371906
0.00153651
-0.00706414
-0.00872526
-0.000539576
-0.000536908
-0.000363032
-0.00472813
-0.00441192
-0.000880464
0.00257303
-0.00211754
-0.0102349
-0.00111203
-0.000547057
-0.000463126
-0.000339261
-0.00512225
-0.00570905
-0.00225927
0.000463981
-0.00488869
-0.00939192
-0.000470297
-0.000559271
-0.000441027
-0.000328794
-0.00505646
-0.00665118
-0.00315596
-0.000715075
-0.00527782
-0.00556622
-0.000519365
-0.000595175
-0.000451334
-0.000349927
-0.00427694
-0.00765499
-0.00423346
-0.00160552
-0.00450815
-0.00121696
-0.000544157
-0.000610699
-0.000478608
-0.000393209
-0.00259179
-0.0087093
-0.00504357
-0.0017139
-0.00283277
-0.000356196
-0.000530346
-0.000615221
-0.000533285
-0.00046855
-0.00368425
-0.00865346
-0.00532822
-0.00168689
-0.00104046
-0.00034515
-0.000502569
-0.000601926
-0.000551557
-0.000500676
-0.00443059
-0.00605553
-0.00482647
-0.00120023
-0.000182234
-0.000312686
-0.000451895
-0.00056692
-0.000600128
-0.000533888
-0.000576626
-0.00325673
-0.00274485
-0.00181904
-0.00312395
-0.00865106
-0.00161459
-0.000741753
-0.00049859
-0.000492485
-0.00777212
-0.00477765
-0.00227271
-0.00388216
-0.00869629
-0.00860343
-0.000583411
-0.000606819
-0.000447873
-0.000611313
-0.00609681
-0.00457061
-0.00421393
-0.00791118
-0.0114531
-0.000466148
-0.000579151
-0.000502203
-0.000492073
-0.000495594
-0.00585796
-0.00558643
-0.00676706
-0.0111216
-0.00421295
-0.00053384
-0.000494647
-0.000417115
-0.000439718
-0.00032469
-0.00588734
-0.00688686
-0.0085906
-0.00989422
-0.000493565
-0.000539242
-0.000425207
-0.000360882
-0.000353281
-0.0031902
-0.00638394
-0.00706641
-0.00830553
-0.00446259
-0.000541815
-0.000542359
-0.000397267
-0.000332283
-0.000289608
-0.0042364
-0.00644608
-0.00707621
-0.00710269
-0.000457094
-0.000569912
-0.000524902
-0.000384071
-0.00032087
-0.000252703
-0.00466816
-0.00640593
-0.00715232
-0.00462094
-0.00047581
-0.000570557
-0.000514207
-0.00038729
-0.00032011
-0.00159195
-0.00542333
-0.00601546
-0.00701438
-0.00228706
-0.000479603
-0.000559243
-0.000514497
-0.000395774
-0.000330568
-0.00151315
-0.00531953
-0.00570459
-0.00383706
-0.000371768
-0.000454308
-0.000529489
-0.000526283
-0.000429485
-0.000354816
-0.000269899
-0.00472859
-0.00454869
-0.010743
-0.00709713
-0.00769732
-0.00632651
-0.000539909
-0.000663461
-0.00038286
-0.000347539
-0.000412761
-0.014252
-0.0128488
-0.0097876
-0.0102002
-0.00048705
-0.000597983
-0.000464066
-0.000365339
-0.000477056
-0.000590585
-0.0144042
-0.0135524
-0.0130344
-0.000458161
-0.000567595
-0.000523458
-0.000414333
-0.000426131
-0.000522287
-0.000498198
-0.0130648
-0.0137427
-0.00933844
-0.000569212
-0.000589758
-0.000439658
-0.000377211
-0.000489122
-0.000430019
-0.00152019
-0.0124275
-0.0122128
-0.000523813
-0.000623361
-0.00054205
-0.00039914
-0.000382502
-0.000426345
-0.000434182
-0.00595949
-0.0113724
-0.00732777
-0.000585594
-0.000642466
-0.000493789
-0.00037157
-0.000380443
-0.000355803
-0.00527787
-0.00537135
-0.00931447
-0.00158542
-0.000632822
-0.000631149
-0.000459556
-0.000355804
-0.000366303
-0.00169536
-0.00663407
-0.0042826
-0.00678775
-0.000549682
-0.000646189
-0.000608654
-0.000444198
-0.000343327
-0.000348439
-0.00467677
-0.00661665
-0.0031663
-0.00379098
-0.000575827
-0.000651501
-0.000598055
-0.000438813
-0.00034442
-0.000333954
-0.00658136
-0.00639611
-0.0028927
-0.000488176
-0.000605521
-0.000627107
-0.000568455
-0.000445967
-0.000359761
-0.000329678
-0.00545625
-0.00500425
-0.00221775
0.00320241
-0.00184159
-0.00650835
-0.00927899
-0.000440612
-0.000564773
-0.000200193
-4.75504e-05
-6.0182e-05
-6.87645e-05
0.00243746
-0.0066321
-0.010676
-0.00693566
-0.000531192
-0.000506228
-6.77071e-05
-6.20718e-05
-9.08535e-05
-0.000208395
-0.00760478
-0.0120085
-0.0112627
-0.000523919
-0.00056048
-0.000274291
-4.25673e-05
-7.07378e-05
-0.00022202
-0.000522652
-0.0124185
-0.0133814
-0.00389279
-0.000596296
-0.000493023
-0.000102015
-4.34072e-05
-0.000130352
-0.000445011
-0.000520619
-0.0131237
-0.00939587
-0.000594242
-0.000616782
-0.000259161
-6.95945e-05
-5.28297e-05
-0.000278947
-0.000475156
-0.000439805
-0.0106239
-0.000572894
-0.000649388
-0.000519289
-0.000148657
-6.18586e-05
-0.000106163
-0.000379389
-0.000437595
-0.000344311
-0.00506231
-0.000653338
-0.00066432
-0.000426601
-0.000110379
-5.87928e-05
-0.000164441
-0.000404995
-0.000401853
-0.00261706
-0.000597706
-0.000709615
-0.000659388
-0.000321077
-0.000110942
-8.3865e-05
-0.000235338
-0.000424654
-0.000374031
-0.0055529
-0.00062205
-0.000733219
-0.00066561
-0.000290621
-0.000117194
-8.69681e-05
-0.000251537
-0.000418912
-0.000336672
-0.00501019
-0.000732894
-0.000778698
-0.00062172
-0.000248983
-0.00012936
-0.000111497
-0.0002251
-0.000383858
-0.00266593
-0.00371009
-0.00460728
-0.00756945
-0.00736848
-0.00359269
-0.000339119
-0.000334437
-0.000213615
-0.000277394
-0.000252637
0.000108482
-0.00878511
-0.0106076
-0.00776226
-0.00040642
-0.000400926
-0.000347512
-0.000228982
-0.00030016
-0.000306165
-1.63096e-06
-0.0091975
-0.00851135
-0.00206629
-0.000492284
-0.000457365
-0.000362314
-0.000265666
-0.000330008
-0.000317285
-3.56204e-06
-0.00049077
-0.000541251
-0.000564258
-0.00054666
-0.000484595
-0.000346792
-0.000290316
-0.00032959
-0.000237813
2.90106e-05
-0.000533326
-0.000513215
-0.00056058
-0.000505842
-0.000369377
-0.000249252
-0.000231985
-0.000231383
-5.06988e-05
3.33204e-05
-0.000647111
-0.000525949
-0.000448127
-0.00032281
-0.000183662
-0.000103731
-8.52417e-05
-7.54197e-05
1.5796e-05
3.49422e-05
-0.000669021
-0.00063247
-0.000435338
-0.000172757
-5.85074e-05
-2.07166e-05
8.06759e-07
4.33279e-06
3.77093e-05
5.02633e-05
-0.000633385
-0.000661298
-0.000499458
-0.000160877
1.76338e-05
5.55347e-05
4.83787e-05
3.02312e-05
5.19763e-05
6.16323e-05
-0.000631416
-0.000670881
-0.00057097
-0.000209533
1.579e-06
7.6898e-05
9.51679e-05
6.4908e-05
6.73466e-05
6.67856e-05
-0.00060006
-0.000655249
-0.000608203
-0.000280777
-2.28577e-05
6.29656e-05
0.000121782
0.000110652
0.000101249
-6.93597e-05
-0.000395848
-0.000266447
-0.000276563
-0.000202662
-0.000153537
-0.000113595
-0.000362249
-0.000403855
-0.000435833
-0.000381423
-0.000479753
-0.000420212
-0.000384683
-0.000322132
-0.000210293
-9.79365e-05
4.07541e-05
-9.21886e-05
-0.000161655
-0.000178269
-0.000468998
-0.000428725
-0.000402049
-0.000352929
-0.00026703
-0.000195951
-3.79208e-05
9.8262e-05
6.89375e-05
-1.12299e-05
-0.000417756
-0.00039546
-0.000383489
-0.000355702
-0.00028006
-0.000186326
-0.000148842
-1.66613e-05
2.72887e-05
-4.45204e-05
-0.00037611
-0.000357586
-0.000348254
-0.000330964
-0.000268874
-0.000177313
-0.000141664
-0.000141888
-6.5216e-05
-8.65741e-05
-0.000325061
-0.000319287
-0.00031508
-0.000295967
-0.000249538
-0.000194888
-0.000153055
-0.00016106
-0.000156385
-4.38754e-05
-0.000252772
-0.000272745
-0.000279157
-0.000276201
-0.00024155
-0.000203288
-0.000167359
-0.000174195
-0.000191294
-5.11577e-05
-0.000175629
-0.000206356
-0.000239083
-0.000250823
-0.00023718
-0.00021587
-0.000184577
-0.000192083
-0.000216827
-6.89949e-05
-0.00011054
-0.000159003
-0.000228755
-0.000247344
-0.000251015
-0.000237758
-0.00020024
-0.000209841
-0.000247157
-8.42707e-05
-8.66196e-05
-0.000152501
-0.000260075
-0.000285852
-0.00030228
-0.000227806
-0.000197316
-0.000261705
-0.000274412
-0.000152955
-0.000251654
-0.000225462
-0.000198757
-0.000171896
-0.000132488
-9.85825e-05
-8.78161e-05
-9.01682e-05
-9.98485e-05
-0.000136539
-0.000266134
-0.000228187
-0.000199946
-0.000171879
-0.000134809
-0.000105108
-8.14244e-05
-8.2256e-05
-9.81837e-05
-0.000144313
-0.000235547
-0.000208512
-0.000178465
-0.000149299
-0.000120155
-0.000102059
-8.74864e-05
-8.74753e-05
-0.000105397
-0.000152898
-0.000201102
-0.000174742
-0.000141105
-0.000109511
-9.85259e-05
-9.28201e-05
-9.07029e-05
-9.46079e-05
-0.000112911
-0.000162992
-0.000175007
-0.000139638
-0.000100748
-9.17738e-05
-9.07303e-05
-9.536e-05
-0.000102998
-0.000112497
-0.000132975
-0.000186401
-0.000150173
-9.70085e-05
-8.12035e-05
-8.69884e-05
-0.000106616
-0.000126988
-0.000147314
-0.00015615
-0.000176432
-0.000229993
-0.000114257
-7.25594e-05
-7.12463e-05
-0.000113219
-0.000151383
-0.000179239
-0.000194512
-0.00020793
-0.000235945
-0.000285805
-5.92498e-05
-4.83193e-05
-0.00010522
-0.000164722
-0.000199733
-0.000222767
-0.000237673
-0.000267047
-0.00030851
-0.000369488
-2.02257e-05
-7.67811e-05
-0.000159611
-0.000212974
-0.000239841
-0.000247928
-0.0012277
-0.000337739
-0.000388907
-0.000399649
-2.01078e-05
-0.000141738
-0.000210202
-0.00024349
-0.000236878
-0.000270602
-0.00157964
-0.000439323
-0.000424956
-0.000183886
-0.000146146
-0.000105203
-8.11238e-05
-7.58808e-05
-7.55432e-05
-7.34367e-05
-7.35854e-05
-6.82531e-05
-7.28705e-05
0.000182786
-0.000146196
-9.84151e-05
-6.79748e-05
-5.98591e-05
-6.14026e-05
-7.00784e-05
-7.68161e-05
-8.14544e-05
-5.68521e-05
-1.94935e-05
-0.00013426
-8.88412e-05
-5.87487e-05
-5.31335e-05
-6.07183e-05
-7.38642e-05
-8.25113e-05
-7.58949e-05
-1.39059e-05
0.000359933
-0.000120158
-7.42394e-05
-4.79969e-05
-4.92866e-05
-6.82413e-05
-8.3297e-05
-7.45476e-05
-4.02726e-06
9.35037e-05
0.000896338
-0.000106406
-6.00922e-05
-3.77648e-05
-5.40137e-05
-8.4472e-05
-8.22185e-05
1.93986e-05
0.000105722
0.000143727
0.00096905
-8.14564e-05
-4.09124e-05
-2.9389e-05
-6.42669e-05
-0.000100614
-1.57256e-05
0.000139215
0.000153425
0.000141434
0.00123635
-6.00801e-05
-2.24171e-05
-1.99352e-05
-7.86374e-05
-9.50615e-05
0.000135594
0.000204053
0.000151907
0.00090005
0.000851334
-4.14143e-05
-2.80048e-06
-1.1569e-05
-8.86912e-05
-2.69795e-05
0.000179068
0.000174521
0.000141586
0.00233431
0.00331658
-2.46691e-05
1.69951e-05
-7.02301e-06
-9.02974e-05
1.08302e-05
0.000144806
0.00013503
0.000105174
0.00112775
0.00241239
-1.24198e-05
9.55174e-06
-7.22852e-05
-6.81314e-05
2.2731e-05
0.000118717
9.74523e-05
5.88785e-05
3.1319e-05
4.02121e-05
-0.000294464
-0.000239371
-0.000626887
-0.00179152
-0.00178647
-0.00160704
-0.00095233
-0.000225612
-0.000997588
-0.00271341
-0.000280764
-0.000217477
-0.00149842
-0.0018612
-0.00156947
-0.00158443
-0.000722362
-0.00103245
-0.00292923
-0.00314922
-0.000270952
-0.000183309
-0.00144327
-0.000863177
-0.000858053
-0.00101264
-2.26018e-05
-0.000479526
-0.00364272
-0.00200817
-0.000249671
-0.000142467
-0.000951374
-0.000417198
-0.000810213
-7.15762e-05
0.00119977
0.00163592
-0.0030691
-0.00312674
-0.000208804
-0.000891165
0.0005239
0.000488032
-0.000163683
0.00190407
0.00402549
0.0022817
-0.00141717
-0.00295265
-0.000148819
-0.000483355
0.00157566
0.000707022
0.00108078
0.0059235
0.00545357
0.00132923
-0.000933915
-0.00280143
-9.48256e-05
0.000444356
0.00249511
0.00228509
0.00391604
0.00990022
0.0039645
0.000721667
-0.00130622
-0.00332063
-0.000280926
0.00124144
0.00291365
0.00339133
0.00516692
0.00901612
0.00307174
0.000758317
-0.000855937
-0.0026453
-0.000172043
0.0014885
0.00321411
0.00355387
0.00493935
0.00644136
0.00177577
0.000380877
-0.000821092
-0.00132982
-1.34199e-05
0.00180844
0.00309687
0.00329793
0.00522508
0.00541791
0.00334424
0.00295937
0.00301656
0.00564029
-0.000428374
-0.000551736
-0.000507569
-0.000365896
-0.000244845
-0.000165859
-0.000130566
-0.000150625
-0.000630988
-7.97606e-05
-0.000614464
-0.000577359
-0.000468948
-0.000347859
-0.000231239
-0.00014629
-0.000113358
-0.00011885
-0.000558479
-0.00089923
-0.00059988
-0.000554315
-0.000432102
-0.000304322
-0.000200662
-0.000123115
-9.03993e-05
-0.00024611
-0.00181771
-0.00390457
-0.000580234
-0.000511454
-0.000362059
-0.000244179
-0.000154453
-0.00123485
-0.000810338
-0.000949805
-0.00249632
-0.00543563
-0.000569849
-0.000449108
-0.000281175
-0.000174942
-0.00103069
-0.00180371
-0.00125104
-0.00120397
-0.00296824
-0.0057487
-0.000547906
-0.000356246
-0.000194959
-0.000110265
-0.00136769
-0.00138247
-0.000908439
-0.00116553
-0.00354127
-0.00205872
-0.000480564
-0.000259388
-0.000121877
-0.000474228
-0.000421571
-0.000100246
-0.000129851
-0.00100693
-0.00229657
0.00738276
-0.000359771
-0.000162966
-6.1593e-05
-0.00023688
0.00143063
0.00169632
0.00112401
-0.000185274
-0.00167372
0.00747586
-0.000237061
-9.2695e-05
-7.66174e-05
0.0011447
0.00317297
0.00318342
0.0028322
0.00199616
-8.36029e-05
0.00764252
-0.000162824
-7.39487e-05
-0.00024665
0.00193057
0.00446951
0.0058395
0.00521808
0.00372576
0.000571464
0.00256033
-0.0109619
-0.000343307
-0.000363339
-0.000321231
-0.00025363
-0.000191063
-0.000137703
-0.000130522
-0.0018464
-0.00371289
-0.00036515
-0.00042115
-0.000409247
-0.00033455
-0.000286507
-0.000249233
-0.000173498
-0.0001242
-0.00254306
-0.00439664
-0.00633155
-0.000490055
-0.000471004
-0.000396457
-0.000316723
-0.000273595
-0.000248999
-0.00014442
-0.000175993
-0.00288405
-0.00048976
-0.000517261
-0.000517146
-0.000467552
-0.000366115
-0.000284627
-0.000263651
-0.00026455
-0.0001269
-0.000136497
-0.000465407
-0.000490966
-0.000524262
-0.000497958
-0.000414315
-0.000315822
-0.000255745
-0.000275828
-0.000177199
-0.000159657
-0.000470434
-0.00046712
-0.000493521
-0.0004673
-0.0004157
-0.000347756
-0.000272207
-0.000266822
-0.000242312
-0.000167775
-0.000478246
-0.000473943
-0.000433865
-0.000380402
-0.000356799
-0.00032443
-0.000278653
-0.000260305
-0.000266018
-0.000155199
-0.000518413
-0.000453429
-0.000369607
-0.000281566
-0.000249734
-0.000242187
-0.000237046
-0.000240363
-0.000258183
-0.000144525
-0.000477431
-0.000397159
-0.000292208
-0.000184733
-0.000126099
-0.000114584
-0.000114027
-0.000144254
-0.000185104
-0.00010492
-0.000349588
-0.000300613
-0.000192212
-8.05413e-05
3.10359e-06
0.00136615
0.0016496
0.000714237
-1.94969e-05
-0.000476051
-0.0022598
-0.0025895
-0.00388157
-0.00483351
-0.00530748
-0.00522973
-0.0053081
-0.00538745
-0.0050348
-0.00112302
-0.000377582
-0.00349071
-0.0042522
-0.0037949
-0.00298222
-0.00161019
-0.0010402
-0.000878136
-0.00154082
-0.00314853
-0.00138453
-0.00286436
-0.00181463
-0.000303021
0.000586329
0.00071025
0.000112487
-0.000637247
-0.0020066
-0.0128065
-0.00077478
-0.000374138
9.57946e-05
0.000572111
0.000861653
0.000517253
0.000619544
-0.00161511
-0.0138126
-0.0237106
-4.54732e-05
-6.06164e-06
4.37399e-05
0.000696865
0.0007451
0.000904271
-0.00109415
-0.008492
-0.0135222
-0.0110832
-6.69376e-05
-2.04419e-05
3.57905e-05
0.00055338
0.000324095
-0.000115393
-0.0030145
-0.00888473
-0.00866904
-0.00413634
-0.000120593
-5.01441e-05
1.52237e-05
0.000203241
1.52764e-05
-0.000227757
-0.00111226
-0.0044524
-0.00455613
-0.000699382
-0.000225553
-0.000135031
-6.60847e-05
4.57972e-06
0.000227819
0.000307448
0.000987416
0.00186526
-0.000300901
0.00257151
-0.000263553
-0.00023935
-0.000179329
-0.00010832
-2.0677e-05
0.000138213
0.00112712
0.00489066
0.0092704
0.00411329
-0.000298636
-0.000303
-0.000255417
-0.000220579
-0.000179149
-0.000112415
-8.5731e-05
0.00141724
0.0190003
0.0136738
-0.00994869
-0.0114782
-0.0120244
-0.0121163
-0.0116755
-0.00995787
-0.00827065
-0.00379996
-0.000146816
0.00841167
-0.0112343
-0.0121736
-0.0124258
-0.0125114
-0.0127481
-0.0103072
-0.0065037
0.00782134
0.0227916
0.0249985
-0.0120465
-0.0128351
-0.0129758
-0.0131142
-0.0123963
-0.00909954
-0.00180951
0.0112725
0.0137886
0.00243372
-0.0123914
-0.0130673
-0.0133878
-0.0128553
-0.0115845
-0.00811866
-0.00160114
0.011481
0.00818722
-0.00326456
-0.0145595
-0.0139325
-0.0134574
-0.0122427
-0.0113614
-0.00756289
-0.00248079
0.00810406
0.00138359
-0.0104355
-0.0164845
-0.0160573
-0.0140746
-0.0124954
-0.011721
-0.00776765
-0.00460919
0.000651137
-0.00235276
-0.0119185
-0.0212374
-0.0184478
-0.0154901
-0.0133303
-0.0123294
-0.00857539
-0.00555544
-0.00384919
-0.00398631
-0.00991831
-0.0272489
-0.0219557
-0.0180788
-0.0146714
-0.01266
-0.00945052
-0.0061495
-0.00497031
-0.00357354
-0.00718035
-0.0189327
-0.0142331
-0.00923214
-0.0104164
-0.0113312
-0.00975609
-0.00706776
-0.00332625
0.000303676
-0.000981791
-0.00115674
-0.00944117
-0.0093038
-0.00836248
-0.00629402
-0.00535616
-0.00452089
-0.00283188
-0.000507275
0.00695752
-0.0316645
-0.0265742
0.026061
0.0990548
0.139427
0.145836
0.120304
0.0991512
0.0923862
0.115765
-0.0526311
-0.0632321
-0.0496827
-0.0147596
0.0328175
0.0857646
0.128769
0.120679
0.17588
0.217069
-0.0630853
-0.0880151
-0.0813776
-0.0746758
-0.056795
0.0183938
0.140434
0.156933
0.189191
0.211769
0.00821093
-0.0915494
-0.0996324
-0.0941427
-0.0708696
-0.0171344
0.122677
0.147696
0.177474
0.204687
0.0602847
0.0187115
-0.0542779
-0.0883855
-0.0781535
-0.0580375
0.0264546
0.126316
0.166942
0.178632
0.0552552
0.0545652
0.0239163
-0.0192261
-0.0794253
-0.0645826
-0.0414575
0.0514169
0.146295
0.175655
0.032071
0.0315101
0.00676359
-0.0263599
-0.0137802
-0.00507138
0.00828036
0.0411241
0.127396
0.177203
0.00815393
0.0129
0.0643232
0.097097
0.111589
0.121605
0.0973258
0.0652496
0.14178
0.201137
0.0355605
0.0584202
0.0915018
0.111482
0.109221
0.123997
0.094386
0.0854123
0.0954003
0.183858
0.107092
0.117499
0.136115
0.147469
0.127242
0.115961
0.135854
-0.00466792
-0.10321
0.256009
0.0256224
0.0263407
0.0341813
0.0345292
0.0315958
0.0253093
0.0145906
0.0108282
0.00919584
0.00769237
0.0232448
0.0270655
0.0312285
0.033025
0.0310687
0.0270895
0.0175979
0.0105291
0.00849341
0.00742892
0.02409
0.0237912
0.024806
0.0239406
0.0269708
0.0302802
0.0260042
0.0183062
0.0114468
0.00924447
0.0240406
0.0225447
0.0215643
0.0208776
0.0194305
0.0180517
0.0271134
0.0233569
0.0158749
0.0106349
0.0202177
0.0197636
0.0187582
0.0180812
0.0171954
0.0153805
0.0161716
0.0198526
0.0170158
0.0113678
0.0106155
0.011409
0.0126045
0.0130686
0.01349
0.0128083
0.011939
0.0118271
0.0126107
0.00884871
-0.00168486
0.000529822
0.0026924
0.00453646
0.0064474
0.00834087
0.00895827
0.00864582
0.00773473
0.00628576
0.00347366
1.97886e-05
-0.000181625
0.000104291
0.00071249
0.0022178
0.00384175
0.00391327
0.00461833
0.00554398
0.0033543
-0.00184176
-0.00255433
-0.00262806
-0.00226313
-0.00067048
0.000921101
0.00290947
0.0129487
0.0124521
0.00557901
-0.00356654
-0.00521011
-0.00566039
-0.00535531
-0.00380683
-0.00129883
0.00865224
0.0154208
0.0174524
0.000477815
0.000362253
0.000123811
5.99846e-05
2.54188e-05
3.24471e-05
0.000389104
0.00076084
0.000780636
0.000720236
0.000564232
0.000565308
0.000307409
0.000171792
0.000157502
0.000606418
0.000949215
0.00104804
0.00101175
0.000828965
0.000634061
0.00121034
0.0013951
0.00136934
0.00142076
0.00138692
0.00125386
0.00123305
0.00109014
0.000768678
0.000928878
0.000917738
0.0012435
0.00147801
0.00145249
0.00129519
0.0012247
0.00125779
0.00111589
0.000853277
0.00156225
0.00182604
0.00141585
0.00109697
0.000778849
0.000412317
0.000385776
0.000817138
0.00103598
0.00088815
0.000160681
0.000222608
0.000496683
0.000638077
0.000434073
0.000113748
-8.3246e-05
9.04452e-06
0.000436186
0.000586559
0.000733811
0.000427828
0.000300867
0.000262432
0.000141766
-5.96842e-05
-0.000172457
-0.000128309
0.000141172
0.000311036
0.0018034
0.00156758
0.00074337
0.000346097
0.000128493
-3.55538e-05
-8.01022e-05
-4.12148e-05
0.000170773
0.000302447
0.00112745
0.00116353
0.000677798
0.000307002
8.09317e-05
-1.09177e-05
-2.8762e-05
8.16139e-05
0.000503542
0.000474634
0.000766022
0.000309133
0.000365677
0.000133255
2.87731e-05
6.7141e-07
0.000157892
0.000669024
0.000756132
0.000700126
2.24491e-06
1.82671e-06
1.29167e-06
1.03046e-06
7.85009e-07
7.06487e-07
8.26307e-07
8.42622e-07
8.2042e-07
5.30393e-07
2.1932e-06
2.31796e-06
2.04305e-06
1.43959e-06
1.03575e-06
8.54459e-07
8.07457e-07
7.32315e-07
5.84709e-07
3.73001e-07
2.57145e-06
3.14572e-06
3.0697e-06
2.30569e-06
1.81425e-06
1.47416e-06
1.09216e-06
7.81362e-07
6.9639e-07
6.37754e-07
3.51925e-06
4.34595e-06
4.30554e-06
3.43044e-06
3.00332e-06
2.69198e-06
2.39525e-06
1.92319e-06
1.26771e-06
8.4533e-07
4.54632e-06
5.6282e-06
5.78114e-06
5.90857e-06
7.00582e-06
6.88304e-06
5.22527e-06
2.30696e-06
7.11843e-07
2.21012e-07
5.8212e-06
8.46503e-06
1.06583e-05
1.13873e-05
1.04245e-05
5.86113e-06
2.16333e-06
6.1836e-07
2.01455e-07
1.00029e-07
7.65081e-06
1.19759e-05
1.17087e-05
9.81721e-06
5.87532e-06
2.15316e-06
8.00734e-07
4.19675e-07
2.37459e-07
1.44354e-07
8.11056e-06
9.70215e-06
7.08697e-06
3.37069e-06
1.30353e-06
8.72435e-07
7.52495e-07
6.30108e-07
4.38695e-07
2.7713e-07
5.93554e-06
3.22696e-06
1.27124e-06
6.40672e-07
5.80015e-07
5.73447e-07
6.43026e-07
6.95326e-07
6.85069e-07
4.99081e-07
2.03179e-06
5.73046e-07
4.28637e-07
3.89888e-07
3.75662e-07
3.87738e-07
4.79783e-07
5.95706e-07
7.50815e-07
8.26386e-07
-0.000290761
0.000490454
0.000743284
0.000760168
0.000691961
0.000571601
0.000356406
8.95577e-05
-0.000226123
-0.000377676
-0.000848996
-7.03147e-05
0.000495812
0.000694571
0.000731046
0.000689733
0.000601157
0.00038231
-0.00010238
-0.000385516
-0.00106623
-0.000574913
-6.53961e-05
0.000396084
0.000611342
0.000655958
0.000623253
0.000545918
0.000311356
-0.000212485
-0.00110742
-0.000849495
-0.000404006
-5.06097e-05
0.000303764
0.000527239
0.000579898
0.000547145
0.000465904
0.000236224
-0.00113733
-0.000871342
-0.000606863
-0.000246922
8.60009e-06
0.000261838
0.000456065
0.000506729
0.000469517
0.00036893
-0.00113272
-0.000802664
-0.00054436
-0.000258268
9.13099e-06
0.000175481
0.000328756
0.000439464
0.000447522
0.000393081
-0.00107293
-0.000656061
-0.000265481
1.59468e-06
0.000185282
0.000257778
0.00033396
0.00040723
0.000439462
0.000397194
-0.00107559
-0.000423506
2.97509e-05
0.000300267
0.000425403
0.000454575
0.000427998