/*--------------------------------*- C++ -*----------------------------------*\
  =========                 |
  \\      /  F ield         | OpenFOAM: The Open Source CFD Toolbox
   \\    /   O peration     | Website:  https://openfoam.org
    \\  /    A nd           | Version:  9
     \\/     M anipulation  |
\*---------------------------------------------------------------------------*/
FoamFile
{
    format      ascii;
    class       volScalarField;
    location    "79";
    object      N2.gas;
}
// * * * * * * * * * * * * * * * * * * * * * * * * * * * * * * * * * * * * * //

dimensions      [0 0 0 0 0 0 0];

internalField   nonuniform List<scalar> 
137980
(
0.00106545
0.000920348
0.000847394
0.000967077
0.00104346
0.00135039
0.00152586
0.00159649
0.00161301
0.00153611
0.000923393
0.000787768
0.000607019
0.000867989
0.000850161
0.00114763
0.00127312
0.00130997
0.00135853
0.00133385
0.000809947
0.000628596
0.00052201
0.000727744
0.000848574
0.000946763
0.00117463
0.00122354
0.00121054
0.00118955
0.000642506
0.00060906
0.000545054
0.000591757
0.000810701
0.00086399
0.000815343
0.00105274
0.00109872
0.00104088
0.000633908
0.000602188
0.000573553
0.000576095
0.00062583
0.000815506
0.000854647
0.000743939
0.000825746
0.00090101
0.000598721
0.000597257
0.000567914
0.000553506
0.00057401
0.000682634
0.000843336
0.000866634
0.000895278
0.000807218
0.000597077
0.000617505
0.000617741
0.000570416
0.000547904
0.000627533
0.000826555
0.000926554
0.000936678
0.000896606
0.000711638
0.0007845
0.000809749
0.000739753
0.00062189
0.000626549
0.000818564
0.000988132
0.000966406
0.000960214
0.00089978
0.000991584
0.00100828
0.000958467
0.000824772
0.000818849
0.000924215
0.00106529
0.00106741
0.00103868
0.00114594
0.00115993
0.00116698
0.00105782
0.000967703
0.000982061
0.00104158
0.00110429
0.00109854
0.00101951
0.00101571
0.000877633
0.000916572
0.000968821
0.00112649
0.00140453
0.00161837
0.00181858
0.00196102
0.00180767
0.000810523
0.000717138
0.000797203
0.000888701
0.00101051
0.00124884
0.00137252
0.00149626
0.00154725
0.00151077
0.000704749
0.000519385
0.000686169
0.000874721
0.00085695
0.00112466
0.00127649
0.00132502
0.00137046
0.00137941
0.000568896
0.000398539
0.00043282
0.000648208
0.000881253
0.000866617
0.00110103
0.00122034
0.00124363
0.00119055
0.000482826
0.000431371
0.000435599
0.00050743
0.000702394
0.000851221
0.000811009
0.000971173
0.00107124
0.00110864
0.000534014
0.000493061
0.000473101
0.000488267
0.000598618
0.000825252
0.000840435
0.000821104
0.000790092
0.000926698
0.000561838
0.000588286
0.000571279
0.000526947
0.000570248
0.000766738
0.000889506
0.000896458
0.000845032
0.000835431
0.000671443
0.000701147
0.000733983
0.000641923
0.000610633
0.000751737
0.000896479
0.000976584
0.000918291
0.000910666
0.000883302
0.000942612
0.000957344
0.000898196
0.000773282
0.000827083
0.000993838
0.00105582
0.00103466
0.000955185
0.0010885
0.00111072
0.00108202
0.000987257
0.00096982
0.00101153
0.00106828
0.00107513
0.000992473
0.000914899
0.000911593
0.000865894
0.000886317
0.000901087
0.00110867
0.00154152
0.00181131
0.00193856
0.00227533
0.0032548
0.000733092
0.000725719
0.000872339
0.000915239
0.0010882
0.00141529
0.00163423
0.00195227
0.00219956
0.00251562
0.000643573
0.000609757
0.000956254
0.00088895
0.000974617
0.00133707
0.00150509
0.00168402
0.00170263
0.00158443
0.000490468
0.00047324
0.00068698
0.000863358
0.000927955
0.00106483
0.00132197
0.0014231
0.00146819
0.00143207
0.0004128
0.000423694
0.000556062
0.000713719
0.000852629
0.000920775
0.00105363
0.00124683
0.00129154
0.00131835
0.000502636
0.000470891
0.000492904
0.000554904
0.000697923
0.000828001
0.00091177
0.00100637
0.00110512
0.00115168
0.000547054
0.000555662
0.000550865
0.000530611
0.000658216
0.000828535
0.000855371
0.000909032
0.000871032
0.000964985
0.000613801
0.000609726
0.00062433
0.000624915
0.000656314
0.000835927
0.000899188
0.000960685
0.000871044
0.000892288
0.000757981
0.000767826
0.000778527
0.000764178
0.000770046
0.000884049
0.000987927
0.00103656
0.000974072
0.000929277
0.000936667
0.000904963
0.000884826
0.000869882
0.000925911
0.00101557
0.00106314
0.001063
0.000956769
0.000902433
0.000865084
0.000886102
0.000822659
0.000847708
0.00108251
0.0014582
0.00178561
0.00161518
0.00180382
0.00361619
0.000727564
0.000821352
0.000784492
0.000909908
0.001142
0.00148613
0.0017622
0.00191818
0.00192786
0.00353559
0.000646206
0.000868219
0.000899374
0.000858402
0.000986877
0.00134958
0.00167699
0.00193168
0.00233608
0.00333512
0.000435826
0.000789201
0.000833619
0.000868482
0.000949277
0.00113088
0.00157805
0.00183462
0.00222593
0.00284299
0.000386438
0.000567098
0.000783728
0.000846371
0.000951674
0.000962803
0.00127311
0.00160803
0.00193654
0.0024161
0.000485255
0.000496862
0.000621726
0.000763243
0.000965903
0.00110264
0.000870115
0.000932866
0.00126352
0.00150531
0.000510729
0.000517508
0.00055497
0.000665056
0.000876634
0.00103144
0.000911856
0.000941336
0.000977037
0.00103072
0.000607812
0.000601874
0.000619152
0.000660543
0.000844789
0.000958554
0.000910792
0.000946562
0.000909877
0.000954943
0.000712652
0.000701938
0.000727013
0.000751616
0.000823125
0.000959884
0.000961487
0.0010026
0.000895847
0.000901344
0.000862173
0.000803703
0.000802855
0.000853834
0.000931481
0.00102729
0.00103181
0.00103026
0.000893482
0.000899796
0.000894807
0.000920011
0.000817291
0.000838502
0.00101656
0.00140079
0.00170288
0.00160987
0.00187518
0.00337323
0.000852741
0.00081927
0.000758726
0.000906216
0.00114125
0.00157832
0.00196412
0.00186727
0.00191292
0.00338097
0.000798255
0.000914722
0.000855978
0.000948605
0.00118456
0.00167612
0.0020649
0.00220782
0.00223319
0.00342744
0.000697256
0.000860684
0.000867059
0.000914911
0.00112966
0.00154316
0.00214493
0.00245394
0.00280009
0.00349201
0.0006396
0.000727886
0.000857663
0.000895734
0.000988386
0.00119999
0.0020498
0.0024808
0.0030477
0.00348797
0.00055746
0.00066859
0.000747304
0.000861465
0.000922037
0.000847625
0.00170773
0.00244123
0.00302267
0.00340496
0.00058494
0.000562559
0.000661506
0.000802067
0.000862755
0.000763812
0.000953721
0.00216567
0.00280955
0.00311726
0.000621755
0.00061716
0.000658419
0.000767204
0.00088403
0.000921407
0.000769554
0.00126802
0.00216764
0.00244666
0.000721701
0.000702066
0.00071753
0.000777467
0.000911765
0.000976761
0.000927068
0.000988324
0.000989533
0.00115607
0.000850904
0.000784994
0.000793257
0.000840956
0.000940382
0.00100438
0.000945611
0.000968046
0.000924255
0.000911505
0.000987008
0.00098372
0.000899768
0.000812288
0.000895343
0.00122734
0.00179545
0.00176621
0.00146348
0.00163125
0.000899597
0.000869011
0.000780215
0.00089892
0.0011197
0.00155153
0.00206071
0.00196905
0.00163253
0.00173183
0.000819812
0.000959284
0.000872161
0.000977858
0.00120943
0.00175935
0.0022991
0.00225971
0.0018761
0.00197847
0.000775493
0.000888553
0.000870772
0.000933385
0.00115665
0.00176535
0.00238496
0.00247102
0.00237731
0.00219255
0.000717566
0.000785994
0.000870854
0.000928378
0.00104337
0.00163086
0.00244322
0.00262725
0.00271159
0.0025978
0.000657465
0.000729236
0.000783695
0.000912647
0.00104559
0.00147593
0.00251331
0.00283289
0.0029306
0.00286245
0.000676469
0.000671809
0.000732687
0.00086177
0.00103845
0.00149219
0.00257796
0.0029865
0.00309027
0.00302938
0.000724952
0.000685969
0.000719143
0.000828187
0.00101227
0.00136421
0.00250673
0.00294424
0.00309441
0.00310659
0.000789862
0.00073949
0.000724758
0.000817514
0.000969338
0.0011848
0.00220017
0.00265397
0.0029091
0.00304824
0.000852718
0.000786807
0.000789442
0.000816436
0.000952042
0.00105065
0.0017135
0.00206252
0.0019756
0.00166088
0.000979498
0.000936994
0.000914106
0.000862263
0.000908866
0.00110885
0.00187634
0.00160386
0.00142933
0.00353446
0.000908108
0.000920456
0.000821446
0.000941284
0.00110171
0.00170218
0.00206301
0.00160311
0.00147429
0.00343139
0.000845145
0.000953445
0.000903811
0.0010203
0.00132407
0.00200141
0.00217075
0.00159857
0.00146002
0.00324282
0.000819752
0.000886326
0.000910441
0.00103018
0.00144302
0.00207001
0.00218059
0.00170589
0.00155383
0.0029373
0.000852819
0.000807758
0.000934418
0.00110625
0.00164058
0.00211943
0.00218831
0.00168258
0.00155497
0.00274512
0.000871525
0.000822571
0.00088374
0.00116933
0.00179491
0.00214144
0.00221015
0.00182533
0.00168433
0.00264501
0.00100591
0.000832765
0.000888381
0.00130571
0.00185288
0.0021499
0.00223568
0.00184655
0.001822
0.00249692
0.0009521
0.000918822
0.000886784
0.00135882
0.00190761
0.00211936
0.00216179
0.00180433
0.00203271
0.0025535
0.000927554
0.000946821
0.000864246
0.00137081
0.0019016
0.00212829
0.00217225
0.00200816
0.00246703
0.00264817
0.000912635
0.000872604
0.000889922
0.00123042
0.00185718
0.00209719
0.00219501
0.0021748
0.00212841
0.00174923
0.000950351
0.00112998
0.00107407
0.000922258
0.000956344
0.00103524
0.00118652
0.00119876
0.00426185
0.0214737
0.00107128
0.000939639
0.000888429
0.000974192
0.00108759
0.00132165
0.00141462
0.00216077
0.00831562
0.0193038
0.00112663
0.000967119
0.00102574
0.00113353
0.00144205
0.00167667
0.00188258
0.00348184
0.0121804
0.0169982
0.00110117
0.000946399
0.00100042
0.00132248
0.00174754
0.0019955
0.00238476
0.00503095
0.0134542
0.0144257
0.0010368
0.00094387
0.0010638
0.00152428
0.00196235
0.00226204
0.00280399
0.00636301
0.0134112
0.0138829
0.00102219
0.00100509
0.00106205
0.0016743
0.00213913
0.00244672
0.00304318
0.00624041
0.0132061
0.0134957
0.000811924
0.0011052
0.00113115
0.00180192
0.00225459
0.00250423
0.00301348
0.00594146
0.0127189
0.01332
0.000876678
0.00110246
0.00114356
0.00186075
0.0023062
0.00253712
0.00288513
0.00527548
0.0114574
0.0127325
0.00085122
0.00100167
0.00117359
0.00186853
0.00226737
0.00249359
0.00283911
0.00467583
0.0104062
0.0125177
0.00109303
0.00104195
0.00129974
0.00190899
0.00225159
0.00251378
0.00281456
0.00401279
0.00682482
0.010514
0.000993439
0.000930109
0.000999837
0.000958974
0.000867993
0.00085469
0.0011997
0.00441747
0.0282311
0.0274964
0.000787983
0.000870881
0.000973737
0.000968501
0.000924798
0.000918791
0.00303904
0.0156076
0.0234548
0.0124505
0.000397619
0.000854587
0.00104105
0.00102174
0.00127888
0.00264117
0.00833061
0.0163017
0.0153768
0.00677904
0.000413662
0.000831258
0.000954932
0.00135203
0.0020779
0.00493825
0.0135392
0.0141547
0.00963901
0.0051479
0.000513396
0.000789902
0.000985631
0.00198829
0.00342817
0.00835532
0.0138449
0.0120897
0.00695022
0.0047332
0.000605253
0.000817626
0.00151035
0.00265871
0.00471428
0.0102525
0.0126884
0.0103957
0.00614238
0.00483852
0.000730763
0.000746257
0.00173415
0.00312024
0.00554857
0.0113203
0.0118223
0.00956622
0.00597815
0.00519689
0.000655834
0.000834955
0.00196821
0.00346034
0.00597783
0.0112129
0.0114112
0.00922792
0.00618714
0.0056388
0.000793947
0.000799067
0.0020685
0.00350049
0.00600728
0.0109304
0.0112249
0.00914652
0.00652012
0.006217
0.00084994
0.000893378
0.00204353
0.00363107
0.00596071
0.0101355
0.0110534
0.00954072
0.00712566
0.00662088
0.0011068
0.00100951
0.0014646
0.00170239
0.00203665
0.00276826
0.0127252
0.0369758
0.0365799
0.0332869
0.000888291
0.00116128
0.00170612
0.00188723
0.00268025
0.00759624
0.0271015
0.0321068
0.0220558
0.0124767
0.000875368
0.00139173
0.00187498
0.00227075
0.00496429
0.018158
0.0243648
0.0217608
0.00942946
0.00557375
0.00122549
0.00181727
0.00229821
0.00333662
0.0106626
0.021046
0.020561
0.0114005
0.00565468
0.00400675
0.00152185
0.00182434
0.00267076
0.00556356
0.0157427
0.0186773
0.0158044
0.00713469
0.00432
0.0034785
0.00171483
0.00208006
0.00359943
0.00819404
0.0169113
0.0164787
0.0117543
0.00549391
0.00385153
0.00337611
0.00152685
0.00217788
0.00417041
0.01015
0.0165742
0.0149083
0.00943365
0.00472551
0.00365048
0.00341339
0.00141621
0.00237722
0.00491907
0.0113465
0.0157256
0.0137633
0.0079615
0.00458903
0.00380505
0.00396675
0.00137522
0.00224272
0.00496902
0.0112047
0.0152435
0.013319
0.00790073
0.00450608
0.00401437
0.0041051
0.00121818
0.0021192
0.00547013
0.0112555
0.0148285
0.013432
0.008656
0.00498007
0.00419259
0.00498293
0.00152455
0.00155978
0.000936398
0.000698765
0.00224803
0.00539747
0.0378089
0.058355
0.0622092
0.0633744
0.00136517
0.00173144
0.000537636
0.00129157
0.00390922
0.0146418
0.0499232
0.0588691
0.058395
0.0493472
0.00113895
0.000816463
0.000826072
0.00284423
0.00857147
0.0337845
0.0538673
0.0555111
0.0422036
0.0226513
0
0.000569306
0.00170994
0.00518631
0.0184131
0.0456656
0.0523648
0.0446697
0.0222741
0.0130206
0
0.000839232
0.00329791
0.00953815
0.0342498
0.0479135
0.0482083
0.0297519
0.0147995
0.00915146
0.000154856
0.00180094
0.00586858
0.0186396
0.0412767
0.0466178
0.0403135
0.0203489
0.0111828
0.00717163
0.000467054
0.00271701
0.00854391
0.0261839
0.0432729
0.0445689
0.0341326
0.0163719
0.00943331
0.00640231
0.000940555
0.00391222
0.0119409
0.0318527
0.0426644
0.0417895
0.0287943
0.0139782
0.0086557
0.00634542
0.00111604
0.0039478
0.0126694
0.0334234
0.0418044
0.0404082
0.0275384
0.0139765
0.00834507
0.00611347
0.00117449
0.00426841
0.015261
0.0346489
0.0406714
0.0397147
0.0296699
0.0160393
0.00839648
0.00624848
0.00162007
0.00145615
0.00153547
0.00254893
0.00395171
0.00843041
0.0183924
0.0190976
0.0266241
0.0582708
0.00130086
0.0014451
0.00168714
0.00299541
0.00543521
0.011234
0.0209862
0.021431
0.0266459
0.0534026
0.00248401
0.00177207
0.00272932
0.00427601
0.0076616
0.0151935
0.0228938
0.0227153
0.0281599
0.0550499
0.00740207
0.00457006
0.00462152
0.00702848
0.0119466
0.020283
0.0251844
0.0254066
0.0352217
0.0597768
0.0114036
0.0119095
0.0102755
0.0139963
0.021544
0.0286404
0.031155
0.033969
0.0505325
0.0618564
0.0100205
0.016889
0.0209914
0.0270575
0.0344644
0.0397417
0.043301
0.0478304
0.0578094
0.0617261
0.00841418
0.0134055
0.025009
0.0385807
0.0450242
0.0487138
0.0527657
0.0558059
0.0603093
0.0610132
0.0079595
0.012375
0.0233761
0.0420443
0.0526019
0.0564074
0.0582325
0.0588765
0.0609674
0.0590103
0.00721813
0.0113261
0.0198324
0.0406775
0.0538328
0.0598488
0.0626842
0.061451
0.0611995
0.0566285
0.00547262
0.0105797
0.0179876
0.0376463
0.0531894
0.0596639
0.063962
0.0643973
0.0624435
0.0442104
0.0142709
0.0198628
0.0219471
0.0263371
0.0293107
0.0294863
0.0136171
0.0122336
0.0131112
0.0208634
0.0155002
0.0159534
0.0189315
0.0233937
0.0303751
0.0379677
0.0458588
0.0361286
0.0320643
0.0319453
0.0158727
0.0159285
0.0177995
0.0215467
0.0271947
0.032849
0.0452632
0.0542199
0.0532207
0.0473157
0.0163576
0.0162841
0.0171283
0.020474
0.0261107
0.0327109
0.0371317
0.0487974
0.0530571
0.0482196
0.0151715
0.015661
0.0165976
0.0195227
0.0250347
0.0325737
0.0364166
0.0397579
0.0472996
0.0456906
0.0155066
0.0161393
0.0174821
0.0208864
0.0252154
0.0302059
0.0345229
0.0364156
0.0411125
0.04955
0.0191068
0.0181592
0.0191709
0.0218227
0.0254864
0.0293204
0.032803
0.0341415
0.0372738
0.0508191
0.0238448
0.0219994
0.0212938
0.0230359
0.0253199
0.0285791
0.031685
0.0325556
0.0348432
0.0499114
0.0287047
0.0255194
0.0221004
0.0232071
0.0249298
0.0289912
0.0321675
0.0325615
0.0334018
0.0491786
0.0301738
0.0260189
0.0206392
0.0215237
0.0252342
0.0338798
0.0363267
0.0339794
0.034121
0.0462421
0.0225289
0.0226121
0.0226328
0.0232693
0.0250183
0.0268028
0.0278451
0.0282992
0.0284886
0.0278373
0.0215302
0.021267
0.0215128
0.0222958
0.0242778
0.0263118
0.0284834
0.0287877
0.0285825
0.0273685
0.0215875
0.0215567
0.0219446
0.0230727
0.0250208
0.0264456
0.0278605
0.0283457
0.0281197
0.027165
0.0221074
0.0224488
0.0234526
0.0252182
0.0261658
0.0269869
0.027663
0.028071
0.0279584
0.027234
0.0228911
0.0238681
0.0255437
0.0261989
0.0265504
0.0271232
0.0276791
0.0278838
0.0278057
0.0271627
0.0240419
0.0263109
0.0267822
0.026974
0.026661
0.0266664
0.0272083
0.0274774
0.0275409
0.0270366
0.025894
0.0280936
0.0278416
0.0263267
0.0256665
0.0263087
0.0269244
0.0272003
0.0271156
0.0266438
0.0295749
0.029095
0.0262191
0.0251967
0.0257688
0.0264279
0.0270765
0.027193
0.0271023
0.0262674
0.0307316
0.0270604
0.0246903
0.0255566
0.0262269
0.0274999
0.027339
0.0272983
0.0266428
0.0290005
0.0300822
0.0242445
0.0250163
0.0267244
0.0285385
0.0290133
0.0264656
0.0268157
0.0292825
0.04739
0.0237505
0.0252599
0.026575
0.0266436
0.0264521
0.0264163
0.0264387
0.0265288
0.0270966
0.0273802
0.0233141
0.0250577
0.0267495
0.0272294
0.027157
0.0269153
0.0268999
0.0270157
0.0279041
0.0270107
0.0235813
0.0255037
0.0274252
0.0279909
0.0278939
0.0277019
0.0277211
0.0281526
0.0294905
0.0286373
0.0242469
0.0262238
0.0281527
0.0285519
0.0283693
0.0283241
0.0288954
0.0305882
0.0323382
0.0322172
0.0248416
0.0271689
0.0291855
0.0292418
0.028893
0.0293927
0.0323588
0.0353133
0.037572
0.0377527
0.0255934
0.0283072
0.0300108
0.0297263
0.029486
0.0325136
0.0390591
0.0425586
0.0464379
0.042664
0.0261563
0.0295131
0.0311531
0.0304003
0.0310917
0.0407414
0.0488416
0.0529411
0.0506485
0.0453332
0.0264227
0.0305559
0.0321476
0.0312416
0.0357989
0.0491348
0.0560897
0.0587124
0.0589839
0.0550255
0.0264801
0.0314968
0.0334772
0.0328943
0.0405529
0.0533301
0.0592745
0.0625946
0.0648586
0.0662855
0.0262515
0.0320536
0.03482
0.0350948
0.0424461
0.0532519
0.0583148
0.0616702
0.0646286
0.0675853
0.0188747
0.0195618
0.0216799
0.0232708
0.0236408
0.0237691
0.0244772
0.0224464
0.0189486
0.021253
0.0183437
0.0194255
0.0219625
0.0239203
0.0244113
0.0248702
0.0254651
0.0214956
0.0192199
0.0197912
0.0187126
0.0202792
0.023616
0.025502
0.0257795
0.0263507
0.0263532
0.0216256
0.0184554
0.0194902
0.0192253
0.0211978
0.0247627
0.0267758
0.0271934
0.0277501
0.0268768
0.0210432
0.0169492
0.0184456
0.0197563
0.0225658
0.0268109
0.0290257
0.029284
0.0295999
0.0254359
0.0180881
0.0153386
0.0173201
0.0206376
0.0241155
0.0288777
0.0311137
0.0312002
0.0309196
0.0222076
0.0169985
0.0158481
0.0167165
0.0212783
0.0256655
0.0316176
0.0335415
0.0337826
0.0309382
0.0217203
0.0184954
0.01734
0.0168762
0.021611
0.0271298
0.0334759
0.0355374
0.0351752
0.0309993
0.0233708
0.0205188
0.0187742
0.0174735
0.0216846
0.0278734
0.0349392
0.0369046
0.0357167
0.0303069
0.0240659
0.0217024
0.0200796
0.0190594
0.0211053
0.0281394
0.0358313
0.0373036
0.0352343
0.0310556
0.0281846
0.026768
0.0262065
0.0285414
0.0156028
0.0148695
0.0167087
0.0176268
0.0180412
0.0183746
0.0183552
0.017523
0.0150463
0.0152945
0.0147318
0.0150069
0.017014
0.0177757
0.0184679
0.0190065
0.0188808
0.0180901
0.0161841
0.015584
0.0148287
0.0154318
0.0173801
0.0183751
0.018998
0.0195324
0.019409
0.0188321
0.0168606
0.0154205
0.0147472
0.0165055
0.0181226
0.0186995
0.0194744
0.0200504
0.0198163
0.0190073
0.0172729
0.0157548
0.0152181
0.0175896
0.0187164
0.0192318
0.0200568
0.0203602
0.0199698
0.0190103
0.0170867
0.0153858
0.0168573
0.0187188
0.0193447
0.0195938
0.0201707
0.0203028
0.0198009
0.0188941
0.0168045
0.0172553
0.0189522
0.0194143
0.0198041
0.0196389
0.0202198
0.0200573
0.0196258
0.0187462
0.0167744
0.0215921
0.0198583
0.0198808
0.0198854
0.019365
0.019925
0.0200075
0.0197634
0.0189469
0.0168774
0.020764
0.0203085
0.0201726
0.0193946
0.0190035
0.0197355
0.0200739
0.0198661
0.0193101
0.0176688
0.0181121
0.0207798
0.0199624
0.018793
0.018758
0.0199811
0.0208168
0.0204288
0.0198391
0.018387
0.0185632
0.0141874
0.0095694
0.0119825
0.0126299
0.0132275
0.0145015
0.0147224
0.0145973
0.0145083
0.0152287
0.0103234
0.00928856
0.0113646
0.0125814
0.0129027
0.0134096
0.014979
0.0149359
0.0146453
0.0150601
0.00994353
0.00961873
0.0116648
0.0131196
0.0132788
0.0131435
0.0134852
0.015289
0.0151639
0.0151386
0.0100224
0.0101922
0.012242
0.0142602
0.0149268
0.0140525
0.013105
0.0134755
0.0155325
0.0151973
0.00993747
0.0107458
0.0140423
0.0161143
0.0165715
0.0158506
0.0146923
0.0130265
0.0151861
0.0153197
0.00993465
0.0130548
0.0170869
0.0182306
0.0181207
0.0173245
0.0163018
0.0142165
0.0137734
0.0153197
0.0122814
0.0177676
0.0196131
0.0199206
0.0195901
0.0189552
0.0178338
0.0153581
0.0139792
0.0152433
0.019893
0.0214847
0.0216744
0.021639
0.0213505
0.0208009
0.0196537
0.0168545
0.0148342
0.0150123
0.0245275
0.0235461
0.0233553
0.0233425
0.0227143
0.0223714
0.0216675
0.0195105
0.0161994
0.0151067
0.0254351
0.0248154
0.0244606
0.0234777
0.0223914
0.0218192
0.0218302
0.0215878
0.0196902
0.0192399
0.0175402
0.017439
0.0169515
0.0162309
0.0159694
0.0162176
0.0154713
0.0148147
0.0160517
0.0174464
0.0175252
0.0171815
0.0160615
0.0151153
0.0142888
0.0141416
0.0148774
0.0160037
0.0169686
0.0175021
0.0171382
0.0159988
0.0143725
0.0134402
0.014135
0.0150556
0.015625
0.0160185
0.0165263
0.0160187
0.0156024
0.0135503
0.0131834
0.0135976
0.0144438
0.0150331
0.0153474
0.0154773
0.0152592
0.0145244
0.0151286
0.012471
0.0129295
0.0137274
0.0143666
0.0147069
0.0148969
0.014922
0.0142107
0.0137508
0.015261
0.0126993
0.0129099
0.0135485
0.0138468
0.0140189
0.0141677
0.0142634
0.0137939
0.0133523
0.0147589
0.0141189
0.0128287
0.0131226
0.0131012
0.0130397
0.0134127
0.01404
0.0137687
0.0133068
0.0119777
0.014947
0.0145026
0.0130069
0.0127675
0.0125655
0.0126892
0.0132454
0.0136736
0.0132932
0.0111819
0.0118647
0.0134748
0.0140116
0.0129705
0.0123159
0.0122783
0.0123358
0.0131212
0.0131335
0.0116156
0.010734
0.0113113
0.0124085
0.0129873
0.0128212
0.0126231
0.0122029
0.0128325
0.0131489
0.0157214
0.0159684
0.0164521
0.0204225
0.0358752
0.0553489
0.0668748
0.0873638
0.100032
0.122528
0.0148008
0.0156548
0.0159526
0.0187022
0.0318921
0.0545687
0.0724305
0.118213
0.147945
0.153236
0.0128762
0.014858
0.0153398
0.0173583
0.0270798
0.0539459
0.0829933
0.121063
0.124568
0.093062
0.0102537
0.0128669
0.0143503
0.0157625
0.0231731
0.0527613
0.080942
0.117047
0.0970071
0.0690885
0.0103601
0.0109518
0.0126284
0.0140875
0.0206507
0.0509574
0.0717543
0.100718
0.0727711
0.0461711
0.0151678
0.0108678
0.0116734
0.0129247
0.0189547
0.0479049
0.0640057
0.0745833
0.06045
0.0409423
0.0153373
0.0118553
0.0114957
0.0126399
0.0187336
0.0438063
0.061591
0.0583628
0.0541425
0.041671
0.0183598
0.0131957
0.0124685
0.0140416
0.0204187
0.0416591
0.059968
0.0566761
0.0509794
0.0457184
0.0666389
0.0558982
0.0532084
0.036021
0.0328008
0.0437957
0.0589368
0.0619876
0.057835
0.0553947
0.12749
0.0831128
0.0621801
0.050219
0.0598281
0.0621983
0.0656759
0.0660375
0.0633607
0.059162
0.522051
0.529818
0.58108
0.63
0.654798
0.666648
0.664955
0.65805
0.652163
0.656942
0.519689
0.505769
0.521711
0.562736
0.603428
0.647392
0.681266
0.680028
0.702783
0.715157
0.531565
0.505083
0.505402
0.521788
0.558644
0.620371
0.691193
0.701857
0.715637
0.720742
0.602963
0.528768
0.515428
0.523551
0.558195
0.610829
0.685149
0.701269
0.715652
0.721858
0.660203
0.626916
0.56948
0.544131
0.558414
0.593486
0.648565
0.695135
0.714606
0.714322
0.673785
0.674146
0.649585
0.610331
0.573941
0.589953
0.610682
0.667094
0.706776
0.710441
0.677369
0.682581
0.666213
0.639098
0.637618
0.638157
0.642663
0.660009
0.696745
0.704144
0.683267
0.69173
0.711535
0.723811
0.726932
0.724479
0.702558
0.674614
0.695906
0.703273
0.707242
0.721042
0.735555
0.739704
0.732107
0.728631
0.702178
0.676305
0.64908
0.669231
0.742904
0.750671
0.755877
0.754216
0.736815
0.719904
0.711048
0.609223
0.506939
0.680119
0.901442
0.903474
0.911502
0.914809
0.915189
0.911442
0.900387
0.895626
0.892302
0.889172
0.900907
0.905251
0.910612
0.914865
0.916734
0.91701
0.908432
0.90047
0.894735
0.894613
0.902438
0.903587
0.906365
0.907963
0.914309
0.92297
0.924586
0.920272
0.914438
0.912724
0.903049
0.903252
0.904132
0.905682
0.907047
0.909004
0.927914
0.931687
0.929378
0.928157
0.900307
0.901585
0.902495
0.904035
0.905661
0.906356
0.911451
0.924984
0.931124
0.931686
0.891424
0.894124
0.897261
0.899683
0.90249
0.904319
0.905845
0.909144
0.917194
0.915472
0.87796
0.882027
0.886251
0.890412
0.894939
0.899818
0.90295
0.904502
0.904731
0.903834
0.887529
0.88363
0.884335
0.886067
0.888394
0.892398
0.896709
0.897437
0.899221
0.901735
0.892594
0.884818
0.884425
0.885381
0.887227
0.891433
0.89522
0.899389
0.917486
0.916281
0.899799
0.886711
0.885485
0.886398
0.888507
0.892619
0.897196
0.911832
0.919801
0.920679
0.910237
0.906303
0.898593
0.896725
0.896371
0.899746
0.925471
0.963188
0.981583
0.981379
0.912902
0.913378
0.907973
0.907126
0.910903
0.934987
0.962674
0.980584
0.987869
0.97968
0.913011
0.926915
0.93379
0.940224
0.951338
0.962472
0.971728
0.984237
0.989386
0.977406
0.916845
0.916325
0.925981
0.936873
0.945731
0.95439
0.966732
0.982151
0.989604
0.9855
0.928464
0.930119
0.926183
0.92556
0.926122
0.926114
0.935331
0.96222
0.984207
0.989165
0.902982
0.904142
0.909986
0.915328
0.915588
0.913563
0.914488
0.924961
0.957855
0.984432
0.916631
0.909963
0.907641
0.908024
0.907722
0.905785
0.90577
0.911252
0.938484
0.974511
0.941476
0.935655
0.919295
0.911429
0.907697
0.904971
0.905565
0.911234
0.944164
0.98021
0.935482
0.934442
0.922643
0.913401
0.907562
0.905553
0.907295
0.923943
0.976554
0.988402
0.935096
0.920642
0.920114
0.911648
0.907507
0.907663
0.928866
0.980138
0.986248
0.984717
0.98537
0.981527
0.977219
0.989056
0.987454
0.982558
0.98143
0.983956
0.991924
0.995194
0.984433
0.986461
0.992973
0.995394
0.992597
0.98564
0.983717
0.986898
0.995704
0.998348
0.991196
0.995804
0.998413
0.998829
0.99831
0.995879
0.993563
0.993302
0.996684
0.998871
0.997887
0.998992
0.999585
0.99972
0.999731
0.99963
0.999343
0.999059
0.998982
0.998963
0.998371
0.999468
0.999772
0.999857
0.999877
0.999881
0.999867
0.999814
0.999681
0.999475
0.995548
0.999326
0.999816
0.999889
0.999909
0.99992
0.999933
0.999939
0.999928
0.999851
0.977358
0.998411
0.999806
0.999895
0.999907
0.999913
0.999931
0.999952
0.999954
0.99993
0.98232
0.998601
0.999803
0.999893
0.999901
0.999904
0.999915
0.999921
0.999906
0.999881
0.991047
0.998891
0.999782
0.999883
0.999889
0.999878
0.99988
0.999877
0.999802
0.999667
0.995596
0.999218
0.999757
0.999859
0.999866
0.999856
0.999823
0.999786
0.999663
0.999581
0.000495006
0.000980303
0.0012354
0.00130297
0.0012819
0.00120642
0.00108913
0.00106974
0.000890233
0.000796571
0.000377664
0.000659311
0.00106624
0.00126819
0.00133935
0.00132825
0.00128961
0.00120509
0.000969187
0.00077485
0.000375523
0.000438167
0.000579319
0.00099623
0.00124482
0.00132726
0.00132495
0.0013001
0.00117633
0.000847201
0.000258403
0.000440328
0.000447168
0.000565409
0.000908962
0.00120634
0.00130991
0.00130804
0.00127458
0.00112098
0.000147421
0.000388346
0.000493265
0.000543818
0.000645866
0.000920516
0.00118688
0.00129335
0.00128894
0.00124058
0.000102821
0.000270259
0.000479421
0.00056688
0.000724638
0.000840084
0.0010875
0.00122942
0.00128026
0.00126917
2.80982e-05
0.000127532
0.000366312
0.000589894
0.000783365
0.000897228
0.00104251
0.00121904
0.00126372
0.00126584
3.25805e-05
0.000165252
0.000386691
0.000529117
0.000750431
0.000914112
0.000997513
0.00112842
0.00125288
0.0012401
0.000189165
0.000387963
0.000525319
0.000571654
0.000683354
0.000819658
0.00094899
0.00104801
0.00117485
0.00120109
0.000402322
0.000617541
0.000729121
0.000770083
0.00071141
0.000696411
0.000774065
0.000917105
0.00100284
0.00108706
0.000323473
0.000706749
0.00100538
0.00116726
0.00120332
0.00118064
0.00109822
0.00104955
0.00102727
0.000888027
0.000268089
0.000337586
0.000724352
0.00104217
0.00121086
0.00128555
0.00127421
0.0012456
0.00116036
0.000928959
0.000188734
0.000340755
0.000302407
0.000599799
0.000981772
0.00120694
0.0012893
0.00129041
0.00126684
0.00114539
0.000133611
0.000214598
0.000371283
0.00031578
0.000506058
0.000810699
0.00113825
0.00126655
0.00126949
0.00124515
7.79908e-05
0.000166214
0.000289267
0.000488776
0.000413271
0.000532352
0.000798249
0.00112535
0.00124604
0.00124542
2.87591e-05
7.64696e-05
0.000327534
0.000458685
0.000479417
0.000579812
0.000596026
0.000901535
0.00115355
0.00123644
0
4.778e-05
0.000170451
0.000373214
0.00058585
0.000683961
0.000713695
0.000791963
0.00106001
0.00120035
0
0
0.000109575
0.000369194
0.000567456
0.000718137
0.000873063
0.000877168
0.00104367
0.00117849
6.00333e-05
3.13192e-05
0.000297888
0.000424105
0.000540991
0.000656225
0.000750825
0.000835997
0.000950555
0.00113664
0.00019326
0.000317097
0.000506145
0.0006639
0.00070918
0.000688064
0.00070455
0.000792654
0.000852715
0.000973166
0.000226822
0.000568284
0.000738907
0.000964934
0.00106707
0.00109101
0.0010693
0.00103788
0.00100964
0.000979308
0.000194168
0.000255289
0.000471667
0.000847116
0.00104439
0.00119291
0.00124452
0.00123497
0.00120813
0.00110234
0.000148333
0.000260963
0.000238701
0.000278277
0.00071865
0.00103867
0.00121115
0.00127387
0.00127486
0.00125591
0.000113919
0.00017751
0.000273622
0.000376184
0.000226989
0.000523429
0.000929407
0.00118133
0.00125833
0.00125944
4.09229e-05
0.000112441
0.000199099
0.00034881
0.00048494
0.000370203
0.000517898
0.000812244
0.00113665
0.00122745
0
4.98374e-05
0.000199178
0.000320244
0.000496009
0.000502928
0.000567648
0.000635803
0.000924847
0.00114722
0
0
0.000137975
0.000326758
0.000468481
0.00050307
0.000595934
0.000643899
0.000783187
0.000988786
0
0
3.21895e-05
0.000183875
0.000419336
0.00057173
0.000694905
0.000786995
0.000818028
0.000938186
0
0
2.96991e-05
0.000258993
0.000470626
0.000569703
0.000653055
0.000779169
0.00083473
0.000942166
0.000128359
0.000150477
0.000215226
0.000417484
0.000600306
0.000697263
0.000658029
0.000711398
0.000748917
0.000823666
0.000245833
0.000414644
0.000531506
0.000677041
0.000823241
0.000941642
0.000979656
0.000994984
0.00100516
0.00101034
0.000180666
0.000289291
0.000417143
0.000516316
0.000818727
0.00103846
0.00117669
0.00121821
0.00121439
0.00120588
0.000127968
0.000190224
0.000137979
0.000210802
0.000555423
0.000880161
0.00111048
0.00123545
0.00127167
0.00127476
0.00011491
0.000172147
0.000278991
0.000142515
0.000105108
0.000368245
0.000745498
0.00104246
0.0012259
0.00125998
6.77966e-05
0.000126918
0.000210446
0.000347526
0.000261905
0.000194326
0.000231978
0.000688986
0.00097917
0.00117532
7.76026e-06
7.3535e-05
0.000161199
0.000282085
0.000452841
0.000403816
0.000389545
0.000442083
0.000635348
0.000908125
0
0
0.000121203
0.000305381
0.000372162
0.000415025
0.000469015
0.000564372
0.000610426
0.000774454
0
0
0
9.55492e-05
0.000268057
0.000441735
0.000595975
0.000722276
0.000761327
0.000839618
0
0
0
8.25538e-05
0.00029024
0.000524329
0.000643461
0.000716312
0.000767527
0.000814335
3.56998e-05
5.66031e-05
9.76292e-05
0.000210034
0.000386723
0.000593875
0.000703945
0.000745433
0.000768271
0.000782532
0.00023652
0.000308594
0.000410404
0.000447701
0.000594849