/*--------------------------------*- C++ -*----------------------------------*\
  =========                 |
  \\      /  F ield         | OpenFOAM: The Open Source CFD Toolbox
   \\    /   O peration     | Website:  https://openfoam.org
    \\  /    A nd           | Version:  9
     \\/     M anipulation  |
\*---------------------------------------------------------------------------*/
FoamFile
{
    format      ascii;
    class       volScalarField;
    location    "79";
    object      p;
}
// * * * * * * * * * * * * * * * * * * * * * * * * * * * * * * * * * * * * * //

dimensions      [1 -1 -2 0 0 0 0];

internalField   nonuniform List<scalar> 
137980
(
114553
114524
114525
114531
114540
114549
114566
114608
114656
114641
114549
114536
114539
114546
114556
114567
114583
114609
114639
114655
114537
114536
114541
114550
114563
114577
114594
114615
114637
114667
114525
114530
114537
114547
114561
114576
114593
114610
114624
114637
114513
114520
114528
114539
114552
114567
114583
114596
114604
114604
114501
114509
114517
114527
114540
114554
114567
114578
114583
114580
114489
114497
114504
114513
114525
114537
114549
114557
114560
114555
114477
114484
114491
114500
114509
114520
114529
114536
114537
114528
114464
114470
114477
114486
114494
114503
114512
114518
114519
114510
114457
114455
114462
114471
114479
114488
114498
114506
114509
114506
114198
114180
114178
114180
114183
114184
114196
114254
114342
114337
114197
114190
114192
114197
114205
114213
114228
114263
114312
114337
114188
114191
114197
114206
114218
114231
114249
114276
114309
114341
114179
114188
114197
114208
114222
114239
114259
114281
114301
114320
114169
114180
114190
114204
114219
114237
114256
114274
114286
114289
114160
114170
114180
114194
114210
114227
114245
114259
114266
114262
114150
114159
114169
114181
114196
114213
114228
114239
114242
114234
114139
114147
114156
114167
114180
114195
114208
114217
114217
114202
114126
114133
114142
114153
114164
114177
114189
114197
114197
114178
114120
114118
114127
114137
114148
114160
114172
114185
114193
114187
113848
113833
113810
113801
113790
113772
113766
113816
113934
113963
113812
113819
113816
113815
113813
113810
113817
113850
113920
114002
113803
113816
113823
113828
113833
113839
113850
113880
113932
113989
113801
113813
113825
113836
113847
113859
113875
113900
113931
113957
113796
113809
113822
113836
113851
113868
113887
113908
113924
113930
113791
113802
113816
113831
113849
113868
113887
113904
113913
113908
113784
113794
113807
113822
113840
113859
113877
113891
113894
113879
113771
113782
113794
113809
113827
113844
113860
113870
113866
113839
113756
113767
113780
113794
113810
113826
113841
113851
113846
113810
113753
113752
113764
113778
113791
113804
113820
113839
113851
113830
113440
113442
113412
113390
113368
113339
113319
113326
113354
113339
113379
113401
113397
113386
113373
113356
113344
113346
113363
113428
113380
113395
113400
113396
113389
113380
113374
113380
113406
113462
113387
113397
113405
113409
113409
113407
113408
113419
113445
113488
113390
113401
113410
113419
113425
113430
113438
113452
113476
113510
113394
113403
113413
113425
113436
113447
113460
113477
113498
113523
113395
113403
113413
113426
113439
113453
113469
113488
113504
113512
113390
113398
113408
113420
113434
113447
113463
113481
113490
113470
113387
113393
113400
113410
113421
113431
113445
113466
113481
113456
113394
113391
113392
113394
113399
113403
113414
113449
113504
113519
112983
113008
112991
112973
112956
112934
112915
112912
112953
112933
112908
112954
112963
112957
112949
112936
112925
112925
112950
113026
112924
112951
112962
112961
112956
112948
112942
112946
112977
113055
112954
112965
112973
112975
112972
112968
112967
112977
113011
113076
112970
112977
112985
112989
112990
112990
112994
113008
113043
113100
112978
112986
112995
113001
113006
113009
113018
113037
113071
113130
112983
112992
113000
113008
113015
113021
113033
113057
113090
113140
112991
112994
113001
113009
113015
113021
113032
113055
113076
113072
113009
112999
112998
113002
113004
113005
113010
113029
113045
113002
113020
112997
112992
112985
112977
112970
112971
112998
113059
113089
112538
112573
112554
112534
112510
112477
112449
112459
112547
112480
112454
112506
112521
112517
112505
112489
112478
112487
112530
112596
112463
112504
112518
112518
112513
112504
112499
112506
112547
112619
112510
112525
112534
112534
112530
112525
112523
112534
112575
112649
112536
112547
112553
112553
112551
112549
112552
112568
112613
112693
112551
112565
112570
112571
112571
112574
112583
112608
112661
112761
112569
112582
112585
112587
112589
112596
112614
112653
112720
112851
112597
112601
112597
112596
112599
112607
112631
112679
112745
112833
112683
112619
112599
112592
112593
112599
112618
112664
112716
112680
112721
112606
112569
112555
112558
112560
112572
112617
112693
112689
112094
112139
112106
112082
112058
112017
111993
112064
112350
112192
111997
112049
112065
112064
112057
112046
112053
112102
112215
112257
111994
112041
112059
112065
112067
112068
112080
112123
112227
112271
112051
112067
112076
112080
112083
112087
112101
112153
112249
112270
112083
112091
112096
112098
112101
112109
112130
112187
112278
112301
112101
112112
112115
112115
112119
112134
112166
112234
112329
112365
112120
112134
112133
112132
112138
112162
112212
112300
112409
112478
112157
112155
112148
112145
112156
112190
112263
112383
112521
112630
112240
112163
112147
112143
112158
112203
112303
112462
112637
112735
112249
112119
112092
112093
112117
112166
112283
112483
112714
112810
111607
111624
111577
111569
111572
111561
111608
112004
112513
112396
111533
111548
111552
111560
111578
111597
111641
111860
112092
112080
111523
111550
111562
111574
111590
111608
111653
111784
111812
111673
111579
111581
111585
111590
111600
111620
111663
111690
111560
111288
111607
111602
111600
111600
111606
111627
111654
111601
111402
111086
111615
111610
111601
111600
111608
111630
111640
111555
111350
111049
111620
111607
111593
111592
111607
111632
111635
111555
111375
111118
111627
111596
111575
111577
111603
111639
111648
111588
111445
111239
111626
111564
111535
111544
111594
111654
111680
111636
111519
111343
111623
111490
111440
111476
111576
111679
111731
111704
111590
111415
110935
110956
110941
110975
111039
111134
111485
112055
112151
111842
110980
110962
110960
110986
111041
111135
111387
111736
111835
111827
111018
111000
110998
111015
111050
111129
111290
111417
111360
111293
111059
111040
111031
111036
111056
111091
111125
111069
110891
110726
111077
111062
111049
111044
111044
111031
110954
110792
110580
110369
111080
111066
111050
111038
111022
110960
110818
110624
110417
110226
111071
111055
111035
111022
110990
110902
110737
110534
110344
110194
111056
111033
111010
110997
110964
110869
110699
110489
110309
110203
111048
111004
110970
110964
110948
110860
110690
110459
110278
110220
111055
110955
110902
110922
110947
110888
110708
110437
110225
110218
110351
110363
110388
110415
110462
110657
110944
110997
110859
110640
110392
110390
110402
110430
110486
110626
110795
110843
110748
110800
110417
110410
110418
110440
110487
110561
110611
110567
110467
110498
110433
110424
110427
110437
110443
110429
110372
110247
110132
110076
110441
110432
110424
110409
110366
110282
110149
109992
109859
109749
110459
110436
110410
110368
110285
110154
109982
109813
109674
109550
110482
110438
110392
110328
110221
110062
109866
109687
109548
109429
110493
110428
110367
110295
110180
110005
109789
109592
109460
109361
110488
110399
110330
110271
110167
109985
109733
109498
109376
109318
110492
110343
110274
110256
110191
110008
109695
109397
109282
109331
109746
109771
109718
109665
109651
109755
109851
109828
109820
109922
109675
109694
109688
109670
109670
109721
109775
109786
109809
109936
109627
109656
109666
109662
109666
109692
109706
109686
109674
109748
109643
109654
109658
109654
109648
109636
109598
109526
109451
109431
109689
109681
109667
109647
109615
109559
109470
109347
109216
109093
109758
109720
109681
109640
109579
109486
109354
109190
109003
108780
109821
109754
109693
109634
109553
109433
109264
109047
108808
108529
109842
109761
109691
109628
109543
109405
109193
108924
108652
108394
109818
109732
109667
109620
109550
109403
109152
108805
108475
108320
109807
109681
109622
109617
109583
109443
109150
108672
108237
108301
108825
108795
108781
108762
108767
108798
108782
108693
108569
108359
108805
108811
108808
108800
108797
108792
108754
108678
108595
108534
108821
108843
108842
108830
108819
108803
108765
108706
108654
108640
108910
108913
108894
108870
108847
108822
108785
108739
108702
108716
109019
108991
108952
108914
108881
108847
108809
108770
108733
108737
109103
109051
109000
108952
108911
108872
108832
108788
108732
108670
109146
109084
109028
108976
108931
108890
108843
108780
108692
108530
109133
109082
109030
108982
108939
108896
108839
108753
108631
108427
109089
109056
109012
108976
108942
108895
108821
108701
108530
108392
109082
109038
108991
108973
108959
108914
108810
108621
108406
108513
108220
108105
108050
108058
108087
108114
108152
108197
108226
108231
108101
108111
108115
108129
108147
108160
108175
108192
108196
108193
108114
108149
108166
108175
108185
108191
108194
108195
108188
108173
108181
108199
108208
108211
108213
108214
108209
108203
108193
108179
108252
108241
108237
108233
108229
108225
108218
108209
108200
108201
108310
108275
108255
108238
108225
108216
108206
108195
108188
108190
108346
108300
108264
108232
108205
108186
108171
108156
108147
108125
108357
108313
108267
108222
108181
108144
108118
108098
108081
108040
108364
108327
108273
108217
108162
108108
108062
108025
107993
107967
108396
108367
108297
108228
108162
108094
108028
107981
107966
108098
107566
107553
107529
107513
107506
107515
107518
107487
107430
107412
107499
107513
107514
107510
107508
107510
107504
107480
107448
107432
107472
107497
107508
107505
107502
107498
107492
107475
107458
107462
107459
107491
107502
107496
107486
107477
107468
107458
107454
107465
107477
107500
107500
107485
107462
107444
107432
107429
107432
107449
107535
107527
107501
107468
107430
107403
107389
107389
107399
107422
107603
107554
107498
107443
107394
107362
107346
107348
107358
107372
107636
107563
107485
107413
107357
107322
107308
107312
107317
107317
107624
107560
107484
107403
107336
107296
107282
107285
107301
107328
107601
107606
107525
107430
107344
107297
107287
107298
107327
107361
106722
106729
106742
106739
106716
106667
106575
106426
106286
106381
106672
106683
106679
106663
106636
106593
106530
106450
106373
106361
106658
106651
106633
106609
106578
106540
106493
106434
106368
106302
106668
106632
106598
106566
106534
106502
106464
106417
106356
106268
106675
106618
106572
106534
106506
106482
106457
106426
106377
106286
106667
106604
106553
106515
106492
106478
106470
106455
106415
106333
106645
106593
106539
106500
106484
106484
106491
106486
106456
106397
106614
106578
106522
106487
106479
106489
106507
106512
106493
106467
106567
106565
106514
106479
106471
106484
106507
106523
106526
106540
106489
106632
106539
106459
106435
106445
106471
106507
106550
106564
105696
105744
105738
105708
105659
105576
105478
105464
105625
105989
105675
105695
105674
105638
105597
105553
105513
105521
105604
105756
105712
105671
105629
105588
105552
105520
105497
105507
105542
105535
105756
105653
105591
105545
105511
105485
105468
105471
105484
105477
105768
105632
105559
105509
105477
105455
105440
105436
105438
105428
105739
105611
105532
105480
105450
105431
105417
105409
105406
105402
105695
105592
105512
105463
105436
105419
105404
105391
105385
105390
105646
105577
105507
105464
105439
105421
105400
105377
105360
105361
105577
105582
105529
105489
105460
105439
105413
105375
105339
105333
105452
105641
105598
105527
105489
105478
105460
105420
105375
105301
104253
104300
104524
104694
104797
104813
104746
104682
104682
104760
104017
104252
104464
104624
104719
104743
104702
104655
104648
104653
103951
104236
104427
104567
104652
104677
104652
104614
104586
104547
103987
104247
104414
104524
104588
104607
104595
104564
104531
104493
104113
104293
104415
104487
104522
104532
104529
104512
104494
104488
104247
104349
104412
104436
104439
104438
104443
104446
104453
104488
104366
104406
104396
104361
104327
104317
104328
104347
104376
104428
104469
104442
104354
104257
104186
104165
104170
104183
104187
104139
104506
104446
104323
104154
104033
103982
103954
103936
103878
103661
104469
104619
104440
104137
103894
103780
103712
103716
103701
103668
102514
102415
102955
103295
103433
103498
103572
103656
103729
103807
102328
102660
103052
103311
103468
103570
103638
103680
103711
103756
102359
102812
103126
103360
103521
103625
103688
103715
103712
103704
102444
102880
103163
103381
103541
103644
103702
103724
103712
103680
102623
102955
103189
103384
103534
103634
103686
103703
103688
103657
102771
103008
103202
103367
103492
103579
103629
103641
103622
103606
102911
103051
103199
103316
103401
103467
103504
103511
103492
103498
103052
103109
103185
103224
103245
103267
103274
103266
103237
103235
103182
103184
103170
103082
103005
102946
102900
102866
102775
102574
103268
103312
103192
102898
102636
102462
102350
102311
102329
102501
102622
102637
102571
102484
102435
102419
102441
102538
102805
102931
102452
102534
102547
102527
102508
102502
102518
102584
102710
102907
102389
102497
102551
102571
102568
102549
102519
102495
102497
102666
102413
102506
102569
102593
102579
102526
102432
102313
102207
102212
102503
102553
102586
102585
102545
102455
102307
102117
101922
101788
102582
102599
102602
102574
102508
102391
102217
101997
101769
101634
102578
102615
102614
102577
102501
102372
102184
101934
101662
101523
102562
102616
102627
102596
102520
102387
102182
101875
101516
101385
102616
102641
102650
102631
102565
102433
102210
101799
101282
101202
102757
102697
102687
102673
102626
102510
102239
101546
100606
100663
101380
101389
101393
101352
101319
101306
101299
101283
101251
101200
101369
101349
101340
101318
101298
101285
101276
101278
101288
101328
101304
101297
101292
101280
101266
101253
101241
101236
101244
101300
101230
101235
101237
101235
101226
101212
101192
101171
101166
101212
101159
101172
101182
101187
101181
101165
101141
101106
101086
101082
101088
101110
101127
101137
101134
101115
101084
101038
100991
100966
101008
101042
101069
101089
101092
101072
101030
100969
100899
100872
100924
100978
101019
101055
101067
101049
100994
100906
100797
100703
100897
100957
100986
101027
101064
101056
100991
100868
100719
100548
101023
100939
100926
101004
101094
101107
101021
100828
100646
100384
100189
100292
100337
100242
100100
100007
99983.6
99934.9
99904.2
99862.8
100189
100190
100171
100098
100020
100000
99987.2
99954.6
99883
99741.7
100127
100114
100096
100052
100009
99997
99981.1
99928.1
99813.3
99632.9
100066
100055
100045
100023
99998
99983.8
99964.5
99911.1
99842.4
99761
100052
100026
100013
99996.8
99977.8
99955.6
99931.6
99913.1
99916.9
99908.3
100013
99983.8
99981.2
99974.2
99959.7
99947.1
99938.1
99934.8
99935.8
99935.5
99876.9
99916.4
99946.5
99956.2
99950
99941.6
99940.2
99939.5
99938.3
99932.8
99667.5
99866.6
99922.3
99940.4
99947.1
99943.7
99942.7
99941.7
99937.7
99915.1
99588
99817.4
99874.3
99913.1
99942.1
99947.8
99947.2
99946.6
99938.2
99913.5
99576.6
99721.5
99823.9
99903.5
99958.6
99999.3
99981.5
99961.2
99967.2
99931.3
100001
100019
100045
100045
100017
99972.5
99899.9
99792.8
99633.3
99485.8
100021
100018
100006
99993.2
99987.4
99976.8
99944.8
99873.3
99785.4
99803.8
100023
100006
99975.8
99955.1
99957.4
99967
99964.2
99935.2
99911.7
99939.7
100002
99980.8
99963.2
99951.7
99954.8
99966.8
99969.7
99957
99944.9
99951.3
99958.5
99943.8
99943.8
99951.8
99963.7
99974.7
99975.7
99966
99951.2
99950.5
99894.7
99893
99910.1
99938.6
99964.8
99982.2
99989.1
99986.5
99979.7
99978.1
99817.6
99838.6
99876.8
99923.6
99965.7
99996
100017
100027
100025
100015
99777.7
99799
99847.2
99910.8
99969.1
100013
100048
100071
100071
100036
99791
99797.5
99842.8
99910.9
99975.4
100026
100064
100095
100100
100067
99834.3
99819.7
99849.6
99913.3
99980.7
100030
100067
100106
100096
99960.9
100000
100001
100001
100000
99998.8
99998.1
99998
99998.2
99998.4
99999
99998.8
100001
100001
100000
99999.2
99998.5
99998.3
99998.5
99998.6
99998.5
99999.5
100001
100001
100000
99999.3
99998.6
99998.3
99998.4
99998.7
99998.5
100002
100002
100001
99999.9
99998.8
99998.2
99997.9
99998.2
99998.5
99998.6
100002
100002
100000
99998.9
99998
99997.6
99997.7
99997.9
99998.3
99998.7
99998.7
99998.8
99998.2
99997.6
99997.2
99997.3
99997.7
99998.2
99998.6
99998.9
99987.9
99986.6
99991
99995
99996.9
99997.8
99998.6
99999.3
99999.5
99999.2
99974.3
99969.5
99979.2
99989.5
99996
99999.2
100001
100001
100001
100000
99968.1
99964.7
99974.7
99986.7
99995.5
100000
100002
100003
100003
100002
99975.1
99972
99978
99988
99996
100001
100003
100004
100003
100002
100001
100001
100001
100001
100001
100001
100001
100001
100001
100001
100001
100001
100001
100001
100001
100001
100001
100001
100001
100001
100000
100001
100001
100001
100001
100001
100001
100001
100001
100001
100000
100000
100001
100001
100001
100001
100001
100001
100001
100001
100000
100000
100001
100001
100001
100001
100001
100001
100001
100001
99999.9
100000
100000
100001
100001
100001
100001
100001
100001
100001
99999.7
100000
100000
100001
100001
100001
100001
100001
100001
100001
99999.6
99999.9
100000
100001
100001
100001
100001
100001
100001
100001
99999.6
99999.9
100000
100000
100001
100001
100001
100001
100001
100001
99999.7
99999.9
100000
100001
100001
100001
100001
100001
100001
100001
158684
158678
158673
158669
158665
158661
158657
158654
158653
158657
158676
158674
158671
158668
158664
158661
158657
158654
158652
158651
158673
158671
158669
158666
158663
158659
158656
158653
158651
158649
158670
158669
158666
158663
158660
158657
158654
158651
158649
158648
158666
158665
158662
158659
158656
158653
158650
158648
158646
158645
158660
158659
158658
158654
158651
158648
158646
158644
158642
158641
158654
158654
158652
158648
158645
158642
158640
158638
158637
158636
158648
158648
158645
158641
158637
158635
158633
158632
158631
158630
158645
158644
158638
158633
158629
158627
158626
158626
158626
158624
158652
158645
158634
158625
158620
158618
158619
158621
158622
158623
158343
158338
158335
158332
158329
158327
158324
158322
158322
158325
158335
158334
158332
158330
158328
158326
158324
158321
158320
158319
158332
158331
158330
158328
158326
158324
158322
158320
158318
158317
158329
158329
158328
158326
158324
158322
158320
158318
158316
158315
158325
158325
158325
158323
158320
158318
158316
158315
158314
158313
158319
158321
158321
158319
158316
158314
158312
158311
158310
158309
158313
158316
158316
158314
158312
158309
158308
158307
158306
158305
158307
158310
158310
158308
158306
158304
158302
158302
158301
158299
158303
158306
158304
158301
158298
158297
158297
158297
158297
158295
158308
158307
158301
158294
158290
158289
158291
158293
158296
158295
158000
157997
157995
157992
157991
157989
157988
157987
157988
157991
157991
157992
157991
157990
157990
157988
157987
157986
157985
157985
157988
157989
157989
157988
157988
157987
157985
157984
157983
157983
157985
157986
157986
157986
157985
157984
157983
157982
157982
157981
157981
157983
157984
157983
157982
157981
157980
157980
157979
157979
157976
157979
157981
157980
157979
157977
157977
157976
157976
157976
157970
157975
157977
157977
157975
157974
157973
157972
157972
157972
157963
157970
157972
157972
157970
157969
157969
157968
157968
157967
157958
157965
157966
157966
157964
157964
157964
157965
157966
157963
157959
157965
157963
157959
157957
157957
157959
157964
157967
157966
157657
157655
157653
157652
157651
157651
157650
157650
157651
157654
157647
157649
157649
157650
157649
157649
157649
157649
157648
157648
157643
157645
157646
157647
157647
157647
157647
157647
157646
157646
157640
157642
157643
157644
157644
157645
157645
157645
157645
157645
157636
157639
157641
157641
157641
157641
157642
157642
157642
157643
157631
157635
157638
157639
157639
157638
157638
157639
157639
157640
157625
157631
157635
157637
157636
157636
157635
157635
157636
157636
157618
157626
157631
157632
157632
157632
157632
157633
157633
157632
157611
157621
157625
157626
157627
157627
157628
157630
157631
157629
157608
157620
157622
157620
157619
157620
157624
157629
157634
157633
157314
157312
157311
157311
157311
157311
157311
157312
157313
157315
157303
157306
157307
157308
157308
157309
157309
157309
157310
157310
157298
157301
157303
157304
157306
157306
157307
157307
157308
157308
157294
157297
157300
157301
157303
157304
157304
157305
157306
157307
157290
157294
157297
157298
157299
157300
157301
157302
157304
157305
157285
157290
157294
157296
157297
157297
157298
157299
157300
157302
157279
157286
157292
157294
157295
157295
157296
157296
157298
157298
157271
157281
157287
157290
157292
157293
157293
157295
157296
157295
157264
157275
157281
157285
157286
157288
157290
157293
157294
157292
157258
157272
157279
157279
157279
157280
157285
157291
157297
157297
156970
156969
156969
156969
156969
156970
156971
156972
156972
156974
156959
156962
156964
156965
156966
156967
156968
156969
156969
156969
156953
156957
156959
156961
156963
156964
156965
156966
156967
156968
156949
156952
156955
156958
156960
156961
156963
156964
156965
156967
156944
156948
156952
156954
156957
156958
156959
156961
156963
156965
156939
156944
156949
156952
156954
156955
156956
156958
156960
156962
156933
156941
156947
156951
156953
156953
156954
156956
156957
156958
156926
156935
156943
156947
156950
156951
156953
156954
156956
156955
156918
156929
156937
156941
156944
156946
156949
156952
156955
156953
156910
156925
156934
156937
156937
156939
156944
156950
156957
156957
156626
156626
156626
156627
156627
156629
156630
156631
156631
156633
156615
156618
156621
156622
156624
156625
156626
156627
156628
156628
156608
156612
156615
156618
156620
156622
156623
156624
156626
156627
156603
156607
156611
156614
156617
156619
156620
156622
156624
156626
156599
156603
156607
156611
156613
156615
156617
156619
156621
156624
156594
156599
156604
156608
156611
156613
156614
156616
156619
156621
156588
156595
156602
156606
156609
156611
156612
156615
156616
156618
156581
156590
156598
156603
156606
156609
156611
156613
156615
156615
156573
156584
156593
156598
156602
156605
156608
156612
156615
156614
156566
156580
156590
156594
156596
156598
156603
156610
156617
156619
156281
156282
156283
156284
156285
156287
156288
156289
156290
156291
156270
156274
156277
156279
156281
156283
156285
156286
156286
156287
156263
156268
156271
156274
156277
156279
156281
156283
156284
156285
156258
156263
156267
156270
156273
156276
156278
156280
156282
156284
156254
156258
156263
156267
156270
156272
156275
156277
156280
156283
156249
156254
156259
156264
156267
156270
156272
156275
156278
156280
156244
156251
156257
156262
156265
156268
156270
156273
156276
156278
156237
156247
156254
156260
156263
156266
156269
156273
156275
156276
156231
156242
156250
156255
156259
156263
156267
156272
156276
156276
156225
156238
156247
156252
156254
156257
156263
156271
156279
156282
155934
155937
155939
155940
155943
155945
155947
155948
155948
155949
155925
155929
155933
155935
155938
155940
155943
155944
155945
155945
155918
155923
155928
155931
155934
155936
155939
155941
155942
155943
155914
155919
155923
155927
155930
155933
155936
155938
155940
155942
155910
155915
155919
155923
155927
155930
155933
155936
155938
155941
155905
155911
155916
155920
155924
155927
155931
155934
155937
155939
155900
155907
155913
155918
155922
155925
155929
155932
155935
155937
155895
155904
155911
155917
155921
155924
155928
155932
155935
155936
155890
155900
155908
155914
155918
155922
155927
155932
155937
155937
155886
155898
155906
155911
155914
155917
155923
155932
155940
155944
155587
155590
155593
155596
155599
155602
155605
155606
155607
155607
155578
155584
155588
155591
155595
155598
155600
155602
155603
155603
155573
155579
155583
155587
155591
155594
155597
155599
155600
155601
155569
155575
155580
155584
155587
155591
155594
155596
155599
155601
155566
155572
155576
155581
155585
155588
155592
155595
155597
155600
155563
155568
155573
155578
155582
155586
155590
155593
155596
155599
155558
155565
155571
155576
155580
155584
155588
155592
155595
155597
155554
155562
155569
155575
155579
155583
155587
155592
155595
155597
155550
155560
155568
155573
155577
155582
155587
155592
155597
155599
155548
155559
155567
155571
155574
155578
155585
155593
155601
155606
155238
155243
155247
155251
155254
155258
155262
155265
155266
155266
155232
155238
155243
155247
155251
155254
155258
155260
155261
155262
155228
155234
155239
155243
155247
155251
155254
155257
155259
155259
155225
155231
155236
155241
155245
155249
155252
155255
155257
155259
155223
155229
155234
155239
155243
155247
155251
155254
155257
155259
155221
155227
155232
155237
155241
155245
155250
155253
155256
155259
155217
155224
155230
155235
155240
155244
155249
155253
155256
155258
155214
155222
155229
155234
155239
155243
155248
155253
155257
155258
155211
155220
155228
155233
155238
155242
155248
155254
155259
155260
155211
155221
155228
155232
155236
155240
155247
155255
155263
155267
154889
154895
154900
154904
154909
154914
154918
154922
154924
154924
154885
154892
154897
154902
154906
154911
154915
154918
154920
154920
154883
154889
154895
154900
154904
154908
154912
154916
154917
154918
154882
154888
154893
154898
154902
154907
154911
154914
154917
154918
154881
154887
154892
154897
154901
154906
154910
154914
154917
154919
154880
154885
154891
154896
154900
154905
154910
154914
154917
154919
154877
154884
154890
154895
154900
154905
154909
154914
154917
154919
154875
154883
154889
154895
154899
154904
154909
154914
154918
154920
154873
154882
154889
154894
154899
154904
154910
154916
154921
154922
154875
154884
154890
154894
154898
154903
154910
154918
154925
154929
154541
154547
154553
154558
154563
154569
154575
154580
154582
154583
154539
154546
154552
154557
154562
154567
154572
154576
154578
154578
154538
154545
154551
154556
154561
154566
154570
154574
154576
154576
154539
154545
154550
154555
154560
154565
154570
154573
154576
154577
154539
154545
154550
154555
154560
154565
154570
154574
154577
154578
154539
154545
154550
154555
154560
154565
154570
154574
154577
154579
154538
154544
154550
154555
154560
154566
154571
154575
154579
154580
154536
154544
154550
154555
154560
154566
154571
154577
154580
154582
154536
154544
154551
154556
154560
154566
154572
154578
154583
154584
154539
154547
154552
154556
154560
154565
154573
154581
154588
154590
154195
154201
154207
154212
154218
154224
154231
154237
154241
154243
154195
154201
154207
154213
154219
154224
154230
154234
154237
154237
154196
154202
154208
154213
154219
154224
154229
154233
154235
154235
154198
154203
154209
154214
154219
154224
154229
154233
154236
154236
154199
154204
154209
154215
154220
154225
154230
154235
154237
154238
154200
154205
154210
154215
154221
154226
154231
154235
154238
154239
154199
154205
154211
154216
154222
154227
154232
154237
154240
154241
154198
154205
154211
154217
154222
154228
154234
154239
154242
154244
154199
154207
154212
154217
154222
154228
154235
154241
154246
154247
154204
154210
154215
154218
154222
154228
154236
154244
154250
154251
153852
153857
153863
153868
153874
153881
153888
153895
153900
153903
153853
153859
153865
153870
153876
153882
153888
153893
153896
153897
153856
153861
153867
153872
153877
153883
153888
153892
153895
153894
153859
153864
153868
153874
153879
153884
153889
153893
153895
153895
153861
153865
153870
153875
153881
153886
153892
153895
153897
153897
153862
153867
153872
153877
153882
153888
153893
153897
153899
153900
153862
153867
153873
153878
153884
153889
153894
153899
153902
153903
153862
153868
153874
153879
153885
153891
153896
153901
153905
153906
153863
153870
153875
153880
153885
153892
153898
153904
153908
153909
153869
153874
153877
153880
153885
153892
153900
153908
153913
153912
153511
153516
153522
153527
153533
153539
153547
153554
153560
153564
153514
153519
153525
153530
153535
153541
153547
153553
153557
153558
153518
153523
153527
153532
153538
153543
153548
153553
153555
153555
153522
153526
153530
153535
153540
153545
153550
153554
153556
153555
153525
153528
153533
153537
153543
153548
153553
153556
153558
153558
153526
153530
153535
153540
153545
153551
153555
153559
153561
153561
153526
153531
153536
153541
153547
153552
153557
153561
153564
153565
153526
153532
153538
153543
153548
153554
153560
153564
153567
153569
153528
153534
153539
153544
153550
153556
153562
153568
153571
153572
153535
153538
153541
153545
153550
153557
153565
153571
153576
153575
153174
153178
153183
153188
153193
153199
153206
153214
153221
153226
153178
153182
153187
153191
153196
153202
153208
153214
153218
153219
153183
153186
153190
153195
153200
153205
153210
153214
153216
153216
153187
153190
153194
153198
153203
153208
153212
153216
153218
153217
153190
153193
153197
153202
153206
153211
153215
153218
153220
153220
153192
153195
153200
153204
153210
153214
153218
153222
153224
153224
153193
153197
153202
153206
153212
153217
153221
153225
153227
153229
153193
153199
153203
153208
153213
153219
153224
153228
153231
153233
153195
153200
153205
153210
153215
153221
153227
153232
153235
153236
153203
153204
153207
153211
153216
153223
153230
153236
153239
153238
152840
152842
152847
152851
152855
152860
152867
152874
152882
152888
152844
152847
152851
152855
152859
152864
152870
152875
152879
152881
152849
152852
152855
152859
152863
152868
152872
152876
152879
152878
152854
152856
152859
152863
152867
152871
152875
152878
152880
152879
152857
152860
152863
152867
152871
152875
152879
152882
152883
152883
152859
152862
152866
152871
152875
152879
152882
152886
152887
152888
152861
152864
152869
152873
152878