/*--------------------------------*- C++ -*----------------------------------*\
  =========                 |
  \\      /  F ield         | OpenFOAM: The Open Source CFD Toolbox
   \\    /   O peration     | Website:  https://openfoam.org
    \\  /    A nd           | Version:  9
     \\/     M anipulation  |
\*---------------------------------------------------------------------------*/
FoamFile
{
    format      ascii;
    class       volScalarField;
    location    "79";
    object      p_rgh;
}
// * * * * * * * * * * * * * * * * * * * * * * * * * * * * * * * * * * * * * //

dimensions      [1 -1 -2 0 0 0 0];

internalField   nonuniform List<scalar> 
137980
(
160794
161127
161256
161603
161914
162093
162148
162224
162593
162968
160345
160533
160945
161467
161961
162228
162261
162231
162510
162954
160429
160453
160646
161080
161657
162170
162446
162537
162713
162946
160381
160397
160456
160713
161161
161704
162205
162500
162598
162583
160292
160295
160288
160393
160678
161070
161538
161930
162090
161963
160216
160218
160175
160183
160311
160576
160892
161216
161411
161322
160151
160160
160130
160098
160121
160239
160449
160674
160835
160813
160061
160082
160093
160084
160074
160101
160175
160298
160402
160384
159926
159975
160024
160058
160069
160079
160107
160152
160200
160182
159772
159874
159924
159988
160023
160055
160105
160175
160224
160233
160227
160777
161032
161364
161655
161794
161901
162188
162619
163274
160025
160377
160766
161318
161790
161989
161919
161886
162382
163048
160205
160366
160588
161078
161679
162115
162274
162302
162597
162997
160074
160217
160375
160746
161316
161975
162492
162734
162809
162815
159957
160045
160120
160374
160793
161402
162064
162534
162714
162525
159889
159928
159933
160045
160336
160767
161321
161841
162118
161966
159831
159850
159829
159834
159990
160281
160639
161020
161290
161270
159739
159768
159777
159762
159773
159928
160167
160380
160542
160542
159581
159659
159708
159730
159716
159729
159831
159928
159997
160106
159420
159569
159600
159663
159676
159680
159720
159776
159802
160104
160206
160172
160685
161023
161171
161174
161293
161670
162219
163036
160083
160265
160588
161107
161475
161611
161627
161769
162540
163418
159855
160306
160697
161210
161696
161950
161970
162101
162763
163319
159774
160089
160496
161080
161741
162230
162493
162689
163014
163160
159647
159821
160134
160610
161349
162196
162809
163123
163175
163145
159568
159627
159798
160150
160741
161573
162421
162991
163143
162944
159525
159526
159557
159788
160193
160800
161550
162236
162642
162351
159368
159391
159407
159504
159793
160175
160647
161115
161391
161240
159113
159225
159281
159335
159502
159790
160071
160296
160301
160220
158883
159069
159127
159234
159277
159409
159646
159847
159820
159638
160170
159840
159942
160217
160100
159809
159690
159777
159864
160621
159781
159932
160110
160334
160470
160426
160306
160372
160876
161934
159291
159967
160466
160815
161052
161047
160896
160905
161481
162516
159586
159947
160485
161021
161461
161647
161658
161676
162097
162772
159531
159784
160251
160925
161574
162022
162312
162457
162688
163117
159421
159563
159891
160526
161385
162172
162740
163088
163325
163557
159314
159335
159554
160055
160888
161854
162679
163285
163504
163508
159092
159101
159219
159619
160297
161151
162003
162709
163036
162801
158827
158937
158997
159295
159838
160503
161133
161569
161667
161077
158572
158853
158854
159006
159341
159766
160131
160521
161306
160341
159814
159568
159256
159306
159132
158784
158302
158001
158094
159906
158990
159367
159352
159289
159289
159074
158575
158001
158981
161171
158643
159459
159902
160019
160010
159724
159224
158855
159902
162220
159375
159775
160281
160630
160730
160526
160158
159972
160830
162579
159484
159857
160401
160901
161226
161260
161076
161012
161648
162729
159320
159646
160230
160939
161474
161768
161892
161989
162423
163121
159034
159218
159761
160692
161521
162023
162412
162793
163154
163881
158663
158657
159168
160217
161384
162147
162728
163315
163650
163686
158411
158401
158762
159739
161031
161968
162465
162937
163288
162505
158496
158599
158732
159223
160197
161124
161456
161863
162433
161051
159482
159298
158932
158771
158496
157844
156741
156758
157446
160190
158344
158880
158696
158519
158317
157533
156630
156039
157738
160842
158248
159011
159233
159157
158852
158148
157046
156311
158072
161656
159230
159617
159918
159940
159595
158857
157870
157269
158909
162541
159480
159926
160274
160437
160206
159570
158789
158425
159998
162751
159401
159938
160299
160627
160665
160237
159751
159643
161048
163021
159317
159358
159891
160657
160981
160892
160806
161152
162335
164039
159355
158282
159328
160704
161310
161522
161774
162558
163800
165799
159067
158198
158938
160677
161713
161990
162147
163014
164491
164998
159776
159914
158933
160042
161093
161473
161506
162225
163573
162274
159447
159071
158623
158158
157349
155444
154645
158589
158046
165258
157497
158206
157970
157483
156390
154944
154970
157946
159367
165153
157772
158259
158232
157780
156793
155385
154998
157297
160274
165091
158919
159089
159001
158397
157273
155838
155276
157600
161176
164964
159330
159584
159459
158767
157622
156492
156168
158442
162017
165035
159403
159751
159612
158930
158030
157430
157528
159693
162871
165356
159599
159654
159539
159190
158701
158533
159279
161297
163911
165941
159708
158881
159581
159760
159719
160005
161249
163248
165348
166902
159579
159021
160016
160643
160930
161754
163390
165594
167718
168488
160546
160673
159732
160550
161375
162585
164464
166926
168768
168048
159776
158560
157546
156700
154470
154462
156529
160015
168765
174716
156137
156771
155629
154432
154101
155123
158429
163402
170577
173966
157030
156871
155888
154801
154575
156287
160505
166173
171249
172651
158219
157834
156856
155819
155622
157861
162541
167718
170828
171161
158734
158508
157684
157047
157080
159612
164021
168130
170156
169816
158941
158803
158235
158071
158710
161205
164868
167873
169384
168582
158918
158745
158572
158978
160139
162436
165208
167480
168595
167622
158626
158580
158971
159803
161270
163376
165481
167206
167957
166962
158615
158744
159453
160559
162220
164215
165923
167033
167527
166793
160322
160113
159600
161123
163084
165023
166455
167218
167550
166583
158829
157024
156174
156111
155459
157536
162847
170819
175928
175559
154684
154309
154151
154593
156428
160661
167164
172983
174472
171880
155644
154569
154391
155588
158924
164549
170051
172486
171667
167210
156586
155672
155575
157629
161868
167169
170686
171365
168115
163166
157361
157031
157402
159829
164135
168476
170251
169702
165234
160673
158288
158299
159061
161698
165629
168690
169586
167951
163325
159355
159050
159272
160378
163125
166353
168472
168818
166553
162224
158571
159435
159840
161393
164006
166652
168182
168153
165622
161381
157905
159554
160341
162061
164478
166743
167901
167663
165045
161370
157976
160351
161496
162847
164955
166821
167667
167412
165329
161830
158582
159203
157622
157108
157787
161034
166899
172545
175173
174992
173536
155376
156087
156914
159540
164586
170234
173628
174234
172140
170380
156002
156373
158268
162631
168164
172075
173152
171782
168498
165989
157058
157663
160697
165592
169920
171756
171775
168488
164862
161919
158117
159488
163023
167378
170302
171081
169539
165517
161990
159104
159225
161168
164625
168151
169990
170084
167277
163208
159855
157200
160303
162412
165561
168358
169515
168937
165469
161463
158164
155615
161170
163150
165978
168239
169021
167935
164286
160278
156882
154355
161918
163525
166076
168037
168600
167203
163427
159163
155400
153262
162778
164174
166266
167880
168279
167023
163624
159261
155517
153302
158270
157502
157404
159276
163691
168376
172065
173636
174114
174442
156156
156603
157977
161097
165890
169912
172602
173667
173844
173585
156495
157268
159620
163581
167998
171275
173004
173322
172567
171255
157398
158773
161900
165995
169754
172117
172758
172217
170413
168353
158763
160772
164162
167900
170742
172001
172098
170485
168091
165642
160370
162736
165986
169156
171138
171667
171003
168789
166032
162959
161867
164276
167275
169815
171061
171187
169959
167376
164097
160412
163098
165185
168000
170128
170983
170810
169133
166260
162447
157717
163949
165748
168303
170250
170975
170491
168500
165528
161405
155967
164975
166509
168531
170242
170920
170373
168585
165459
160238
153913
158619
158790
159708
161392
163614
165841
167215
167062
166931
164617
158841
159223
160539
162498
164648
166317
167078
166678
165708
165308
160433
160791
162083
163828
165607
166742
167094
166422
165732
166685
163112
163296
164078
165369
166626
167292
167302
166701
166283
168138
165583
165802
166263
167049
167790
168085
167936
167463
167289
169438
167168
167533
168043
168605
169030
169172
169058
168682
168585
170764
168213
168713
169283
169762
170100
170347
170394
170055
169762
170714
168956
169411
169985
170471
170856
171255
171588
171458
171297
170263
169277
169728
170277
170809
171231
171574
172024
172533
172363
170325
169744
170031
170386
170853
171291
171512
171462
171363
171553
169580
165957
167619
167965
168891
169227
169240
169155
168970
168739
168292
165586
168555
169391
170012
170305
170231
169939
169642
169354
169088
167632
169485
170158
170573
170936
171034
170857
170538
170170
169864
169707
170287
170730
171067
171440
171688
171629
171427
171157
170921
170847
170953
171122
171321
171644
171997
172137
172113
172026
172193
171588
171491
171390
171363
171491
171817
172142
172340
172554
173207
172003
171791
171539
171306
171162
171230
171539
171986
172763
173416
172124
171856
171553
171213
170840
170500
170580
171175
172480
173229
172074
171799
171461
171012
170486
169832
169329
169736
171597
173098
172132
171845
171363
170799
170114
169131
167663
166502
169035
172307
165854
167371
168595
169323
169979
170606
170792
170427
169712
168655
165868
167296
168589
169482
170164
170832
170993
170799
170367
170070
167080
168157
169266
169860
170248
170592
170892
170809
170544
170594
168095
169054
169901
170179
170195
170116
170114
170155
170217
170566
169231
170094
170445
170328
169961
169341
168826
168938
169334
170172
170447
170911
170687
170237
169318
168159
167171
167299
168083
169619
171364
171202
170591
169500
168038
166503
165337
165540
166694
168838
171680
170956
169840
168331
166528
164680
163483
163916
165413
167612
171464
170403
169136
167402
165315
163224
162014
162451
164785
167540
171308
170083
168591
166727
164610
162666
162019
162684
165210
168056
168405
167777
167171
166765
166531
166343
165831
164870
163296
160411
168528
167757
166898
166359
166056
165841
165488
164916
164410
162572
168369
167359
166496
165946
165530
165198
164844
164290
163537
161760
168205
167038
166052
165402
164938
164576
164209
163831
163253
161580
167815
166639
165637
164918
164465
164146
163933
163767
163402
161536
167351
166184
165193
164477
164079
163921
163981
163896
162952
160881
166785
165664
164646
163932
163693
163842
164096
163448
161741
160108
166209
165063
163881
163338
163343
163745
163962
162748
160937
159743
165870
164361
163035
162918
163180
163708
163808
162615
161538
160783
165753
163467
162079
162516
162698
163089
163450
163551
163348
162846
166735
164492
162327
160566
159206
157530
155059
155298
160466
159013
166798
164243
161527
159303
157648
156083
154089
153595
155810
156397
166129
163382
160557
158237
156504
154919
153049
152611
154366
156805
165557
162538
159565
157166
155497
154093
152694
152592
154281
155554
164841
161635
158726
156380
154844
153722
152760
152824
153748
154167
163874
160894
158288
156009
154584
153695
153166
153080
153445
153564
162925
160560
158199
155934
154813
154336
153866
153495
153401
153455
162181
160563
158449
156512
155683
155404
154770
153897
153295
153285
161893
160655
158665
157282
156728
156613
156033
154832
153571
152833
162187
160086
158519
157761
157435
157724
157796
156862
155441
155009
165798
166368
165816
165628
165836
166208
165331
163137
161971
158936
166350
167431
166678
165569
164857
164897
164363
163004
162278
160983
166707
167615
166842
165316
163921
163234
163086
162346
161225
159616
168187
168004
166948
165065
162880
161234
161385
161141
160094
158372
168959
168317
166949
164414
161495
158965
159343
159761
159056
157996
169350
168469
166369
163230
159661
156292
156794
158215
158114
157864
169491
168136
165329
161534
157470
153727
154259
156371
157385
157849
169547
167338
163757
159458
155336
151596
151823
154219
156560
158098
169372
166052
161939
157367
153558
150455
149557
151244
154365
155507
168562
164496
160128
155370
151871
149834
147347
147654
151108
150290
157167
164729
165879
167088
167363
166388
164748
163120
161633
160497
161681
166896
167283
168956
169804
169265
166912
163691
160993
159861
159825
164958
166648
169089
170725
171097
169844
166903
162656
160682
161784
164464
165745
167589
169954
171499
171404
169575
166110
163015
164029
164802
165640
167089
168767
171000
171752
171009
168397
164831
165808
166167
166937
167518
167928
169100
171295
171545
169569
165726
167093
167462
168025
167961
167313
167588
169310
171112
169801
165533
168129
168664
168860
168220
166692
165699
166665
169230
169346
165315
169350
169733
169233
167645
165136
162684
163428
165805
168737
166057
170849
170441
168451
165181
161850
157203
157240
158760
162759
157770
159527
159900
158021
157071
157503
158583
159485
159987
160436
162490
162198
158814
158212
159054
159688
160013
159645
159187
158593
157777
161096
159844
160529
160973
160505
159529
158084
156030
153784
151403
161506
161834
162414
161597
159956
157729
154809
151506
148257
144719
163096
163320
162811
161117
158564
155100
151164
147318
143695
138674
165333
164682
163376
160905
157106
152352
147546
143691
140668
136635
166317
166212
164439
161819
157989
153024
147813
142990
137842
134307
166084
166485
165819
163858
160731
156275
151128
145177
137132
130911
166172
165876
166147
165830
164199
161278
157718
152052
139211
130730
165741
164986
165636
165903
165519
164364
163166
159827
146013
132706
159777
159094
158310
156904
156054
155838
155655
156216
156102
155308
159459
158926
158315
157409
156451
155780
154876
154015
152522
153233
159095
158856
158359
157690
156983
155964
154831
153855
153122
154212
158821
158718
158335
157916
157477
156450
155207
153438
152612
153726
158343
158382
158261
158135
157697
156864
155502
152774
151432
151210
157566
157814
158020
158053
157715
156988
155724
152797
150462
148651
156344
156992
157563
157856
157639
157041
155697
152921
149992
150008
154765
155997
156784
157428
157520
156835
155296
152686
149101
149380
152863
154420
155660
157119
157258
156686
155065
152626
148520
145906
152643
153496
155948
157991
158729
158538
157299
155039
150882
145855
135540
135112
132616
129673
128118
126828
125142
124804
126135
127198
134655
134724
132933
130001
127453
125276
124953
125463
125642
125557
132733
133144
132215
129732
127260
125800
125610
125844
125688
125391
131997
131072
131353
130301
128526
127160
126466
126105
125667
125997
133967
130208
130508
130499
129566
128477
127300
126065
125597
126338
134581
130334
129923
129958
129349
128172
126935
125833
125548
126703
133847
130103
129101
128422
127788
126662
125206
125128
125461
126575
131813
127771
126725
125559
124691
124090
123635
124018
125285
126275
128075
124334
124203
125189
125894
126172
125534
125669
126635
126399
125215
124412
125432
126369
126783
127681
128006
127949
127306
126732
110991
110531
109880
108910
107847
106734
105593
104590
103711
102984
110647
110225
109540
108633
107491
106221
104912
103728
102893
102378
110121
109747
109125
108307
107273
106060
104743
103386
102242
101749
109487
109110
108580
107873
106981
105916
104716
103511
102336
101495
108773
108382
107905
107311
106577
105696
104684
103636
102590
101634
107924
107561
107146
106661
106078
105384
104592
103749
102880
102050
106921
106658
106351
105981
105535
105011
104426
103788
103137
102522
105945
105781
105552
105288
104971
104604
104210
103821
103535
103235
105360
105205
105062
104935
104816
104796
104764
104697
104610
104366
105208
105152
105127
105133
105154
105252
105407
105539
105601
105528
100346
100348
100337
100315
100290
100264
100236
100208
100187
100183
100371
100382
100384
100361
100330
100296
100258
100234
100219
100210
100426
100453
100463
100437
100400
100355
100310
100273
100244
100226
100508
100552
100538
100503
100458
100404
100347
100297
100259
100233
100536
100598
100577
100535
100480
100421
100360
100304
100266
100233
100538
100579
100563
100525
100471
100414
100362
100300
100228
100193
100526
100537
100529
100499
100447
100385
100317
100245
100180
100154
100507
100489
100474
100446
100397
100331
100254
100187
100158
100143
100465
100433
100405
100371
100319
100252
100194
100181
100173
100157
100390
100357
100321
100277
100218
100177
100178
100186
100189
100180
100107
100107
100106
100108
100108
100107
100107
100106
100107
100108
100107
100107
100108
100109
100109
100108
100107
100107
100108
100108
100108
100109
100109
100109
100109
100109
100109
100108
100108
100108
100109
100109
100109
100109
100109
100109
100109
100109
100109
100109
100108
100109
100109
100109
100109
100109
100109
100109
100109
100109
100108
100109
100109
100110
100109
100109
100109
100109
100109
100109
100106
100109
100109
100109
100109
100108
100108
100109
100109
100109
100106
100108
100108
100108
100108
100108
100108
100109
100109
100109
100107
100108
100108
100108
100108
100108
100108
100108
100108
100108
100107
100108
100108
100108
100108
100108
100108
100108
100108
100108
166416
166435
166458
166475
166484
166481
166469
166447
166418
166385
166461
166479
166504
166524
166535
166534
166524
166505
166480
166453
166485
166515
166542
166561
166572
166572
166565
166549
166528
166505
166481
166519
166553
166577
166591
166594
166589
166577
166559
166538
166451
166495
166537
166568
166586
166595
166594
166586
166573
166554
166401
166449
166497
166535
166561
166577
166582
166578
166568
166552
166335
166384
166436
166482
166516
166539
166552
166554
166549
166536
166258
166302
166356
166410
166454
166486
166506
166514
166513
166504
166175
166217
166269
166326
166378
166418
166445
166460
166465
166459
166099
166146
166188
166233
166283
166331
166368
166394
166408
166403
166409
166430
166451
166467
166476
166476
166468
166449
166422
166390
166455
166472
166495
166515
166526
166527
166519
166502
166479
166452
166482
166507
166532
166550
166562
166563
166556
166542
166522
166499
166481
166512
166543
166565
166579
166582
166577
166566
166549
166529
166449
166487
166525
166554
166571
166579
166577
166570
166557
166540
166390
166434
166480
166518
166542
166555
166560
166556
166547
166532
166309
166353
166405
166453
166489
166510
166521
166523
166519
166506
166210
166248
166299
166356
166406
166442
166463
166472
166471
166462
166106
166135
166181
166238
166298
166349
166383
166402
166408
166401
166021
166046
166074
166115
166171
166229
166280
166316
166336
166331
166404
166429
166451
166466
166476
166476
166469
166452
166426
166393
166447
166467
166491
166511
166521
166521
166514
166498
166475
166449
166478
166500
166524
166541
166552
166553
166547
166533
166513
166490
166481
166507
166533
166554
166565
166566
166561
166550
166533
166514
166451
166484
166516
166540
166555
166559
166556
166548
166534
166517
166390
166430
166471
166503
166523
166531
166531
166527
166517
166501
166303
166342
166387
166429
166461
166478
166484
166483
166477
166463
166190
166215
166256
166305
166354
166391
166411
166418
166416
166404
166065
166075
166103
166152
166210
166265
166305
166327
166333
166324
165979
165968
165973
165999
166048
166107
166164
166211
166241
166234
166401
166429
166451
166466
166475
166475
166468
166452
166427
166394
166439
166463
166488
166505
166514
166514
166507
166491
166468
166440
166469
166492
166515
166531
166540
166539
166532
166517
166497
166473
166476
166499
166522
166538
166547
166546
166539
166527
166510
166490
166452
166478
166504
166524
166534
166534
166528
166518
166502
166484
166395
166428
166462
166486
166499
166500
166495
166487
166474
166457
166309
166339
166375
166406
166429
166440
166439
166433
166422
166406
166186
166199
166224
166260
166299
166331
166349
166352
166347
166331
166050
166032
166042
166074
166122
166172
166210
166232
166238
166226
165963
165924
165899
165903
165932
165980
166032
166080
166115
166109
166398
166428
166448
166462
166470
166470
166463
166448
166422
166389
166430
166458
166481
166496
166504
166502
166494
166477
166453
166425
166457
166482
166503
166517
166522
166520
166511
166495
166474
166449
166465
166487
166506
166518
166523
166520
166510
166496
166477
166456
166446
166467
166488
166502
166506
166502
166493
166479
166461
166442
166398
166422
166449
166465
166469
166463
166452
166438
166421
166403
166318
166340
166364
166383
166394
166395
166388
166375
166359
166338
166196
166194
166204
166222
166247
166269
166279
166278
166269
166248
166056
166017
166003
166015
166045
166082
166112
166129
166132
166118
165972
165911
165866
165839
165845
165871
165908
165946
165980
165974
166393
166421
166441
166454
166460
166460
166452
166436
166409
166375
166418
166447
166469
166482
166487
166484
166474
166456
166431
166401
166441
166467
166486
166497
166499
166495
166483
166466
166443
166417
166449
166469
166484
166493
166494
166488
166475
166458
166437
166415
166433
166450
166466
166474
166473
166464
166450
166432
166412
166392
166390
166410
166429
166437
166434
166421
166403
166384
166363
166341
166322
166337
166351
166358
166357
166348
166332
166312
166290
166265
166213
166201
166195
166198
166205
166212
166211
166202
166187
166161
166081
166026
165992
165985
165994
166012
166027
166033
166031
166010
165998
165922
165861
165818
165798
165800
165817
165840
165862
165847
166383
166410
166429
166440
166445
166443
166434
166417
166389
166354
166402
166431
166451
166462
166464
166459
166448
166428
166401
166372
166419
166445
166462
166470
166470
166463
166449
166430
166406
166379
166425
166445
166458
166463
166460
166450
166435
166416
166393
166370
166412
166427
166438
166440
166434
166422
166403
166383
166360
166339
166376
166390
166401
166403
166393
166374
166351
166327
166302
166280
166315
166326
166332
166330
166319
166301
166276
166250
166223
166195
166225
166210
166194
166184
166176
166167
166153
166134
166113
166083
166111
166053
166004
165980
165973
165971
165969
165963
165953
165930
166027
165947
165880
165823
165787
165772
165772
165779
165788
165774
166368
166394
166411
166421
166423
166420
166410
166392
166364
166328
166380
166409
166427
166436
166436
166430
166416
166396
166369
166339
166392
166418
166433
166438
166435
166426
166412
166391
166366
166338
166396
166415
166426
166427
166422
166410
166393
166372
166348
166324
166384
166398
166403
166402
166392
166376
166356
166333
166310
166289
166352
166362
166367
166362
166347
166324
166298
166272
166248
166226
166298
166306
166306
166296
166277
166251
166221
166192
166164
166137
166222
166211
166192
166172
166152
166130
166104
166079
166055
166026
166128
166078
166030
165993
165969
165953
165936
165921
165910
165889
166045
165974
165909
165848
165799
165769
165757
165758
165767
165755
166348
166373
166389
166396
166397
166393
166382
166364
166336
166299
166353
166382
166400
166406
166404
166396
166381
166361
166334
166303
166360
166385
166398
166401
166398
166388
166372
166352
166326
166298
166361
166380
166388
166388
166381
166367
166350
166329
166305
166280
166350
166362
166365
166360
166348
166330
166309
166287
166264
166243
166321
166326
166327
166317
166299
166275
166249
166223
166200
166181
166272
166275
166271
166256
166231
166201
166169
166140
166115
166093
166204
166196
166178
166154
166125
166094
166062
166034
166010
165986
166117
166087
166050
166010
165975
165943
165917
165897
165886
165870
166038
165989
165937
165878
165824
165783
165761
165756
165761
165755
166321
166347
166362
166368
166368
166363
166352
166335
166306
166267
166322
166351
166368
166373
166370
166361
166346
166325
166297
166266
166324
166349
166361
166364
166360
166350
166334
166314
166288
166259
166321
166340
166348
166347
166339
166326
166309
166289
166265
166241
166310
166321
166324
166317
166304
166287
166267
166246
166224
166205
166282
166287
166284
166272
166252
166229
166205
166183
166162
166145
166235
166236
166228
166209
166183
166154
166125
166099
166079
166063
166171
166166
166150
166124
166091
166057
166025
165999
165980
165964
166093
166070
166042
166008
165971
165935
165904
165884
165874
165864
166017
165980
165945
165896
165843
165800
165775
165769
165773
165773
166286
166315
166332
166337
166337
166332
166322
166306
166277
166236
166285
166314
166331
166336
166334
166326
166312
166292
166264
166232
166283
166309
166322
166326
166322
166312
166299
166279
166253
166224
166279
166298
166306
166305
166298
166287
166272
166253
166230
166207
166265
166277
166279
166273
166261
166247
166230
166211
166192
166174
166236
166242
166239
166227
166209
166188
166169
166151
166135
166122
166190
166191
166182
166164
166139
166114
166091
166073
166059
166049
166126
166121
166108
166084
166054
166024
165999
165980
165969
165961
166052
166038
166017
165986
165952
165920
165895
165880
165876
165875
165980
165957
165926
165883
165842
165807
165787
165785
165793
165804
166242
166275
166294
166301
166302
166299
166291
166279
166250
166207
166241
166271
166290
166297
166296
166290
166280
166262
166234
166202
166238
166265
166280
166285
166283
166276
166264
166247
166223
166192
166232
166252
166262
166262
166257
166248
166236
166221
166201
166177
166216
166229
166233
166229
166220
166209
166196
166182
166166
166150
166185
166193
166191
166182
166168
166153
166139
166127
166116
166106
166138
166141
166134
166119
166100
166082
166067
166056
166049
166045
166073
166070
166060
166041
166019
165999
165982
165973
165971
165972
165998
165991
165976
165952
165926
165904
165890
165886
165892
165900
165929
165916
165893
165859
165825
165804
165796
165803
165821
165844
166190
166227
166250
166259
166262
166262
166258
166249
166222
166179
166190
166223
166245
166254
166256
166254
166247
166233
166206
166174
166188
166216
166234
166241
166241
166237
166229
166215
166193
166164
166182
166203
166215
166218
166216
166212
166204
166192
166173
166151
166164
166178
166185
166184
166180
166173
166166
166157
166143
166130
166131
166139
166141
166137
166129
166121
166114
166108
166102
166096
166080
166086
166083
166075
166064
166054
166048
166046
166046
166047
166012
166014
166009
165998
165986
165977
165972
165974
165981
165989
165936
165935
165927
165913
165899
165892
165890
165898
165914
165933
165867
165862
165847
165825
165806
165799
165807
165827
165855
165889
166131
166172
166198
166210
166217
166220
166220
166214
166190
166150
166134
166169
166195
166207
166213
166215
166212
166201
166177
166145
166134
166164
166184
166194
166199
166199
166195
166184
166165
166136
166128
166151
166166
166174
166176
166176
166172
166164
166149
166128
166109
166125
166135
166140
166141
166141
166139
166133
166125
166114
166073
166084
166091
166093
166093
166092
166093
166093
166092
166089
166018
166028
166033
166032
166030
166031
166034
166040
166047
166053
165947
165955
165959
165958
165957
165959
165967
165979
165994
166009
165868
165875
165877
165877
165877
165882
165894
165915
165941
165966
165799
165802
165797
165790
165790
165800
165821
165854
165892
165935
166069
166112
166142
166157
166167
166175
166178
166175
166154
166117
166075
166112
166141
166157
166167
166173
166174
166168
166146
166115
166078
166109
166132
166147
166155
166160
166161
166154
166137
166108
166073
166097
166116
166128
166136
166141
166142
166138
166126
166104
166053
166071
166086
166096
166103
166109
166111
166113
166109
166098
166014
166030
166042
166051
166059
166067
166073
166079
166084
166083
165956
165972
165984
165992
166001
166012
166025
166038
166050
166060
165882
165899
165911
165921
165933
165948
165966
165987
166009
166029
165801
165819
165833
165844
165858
165878
165903
165934
165966
165998
165730
165746
165755
165765
165779
165805
165840
165883
165928
165977
166006
166050
166083
166102
166114
166125
166132
166131
166112
166076
166016
166053
166085
166105
166119
166129
166134
166130
166111
166080
166022
166053
166080
166099
166112
166121
166126
166122
166107
166076
166017
166043
166065
166083
166096
166106
166112
166112
166102
166078
165996
166019
166039
166055
166067
166078
166089
166095
166093
166081
165956
165977
165997
166014
166029
166042
166057
166071
166079
166078
165897
165920
165940
165959
165978
165997
166018
166038
166055
166067
165822
165848
165871
165893
165916
165941
165969
165998
166025
166047
165742
165770
165796
165821
165849
165880
165916
165954
165992
166027
165672
165701
165723
165747
165777
165816
165862
165912
165962
166014
165945
165989
166024
166044
166059
166071
166080
166080
166062
166025
165958
165995
166029
166053
166070
166083
166090
166088
166070
166038
165967
165999
166028
166051
166068
166081
166088
166087
166073
166039
165963
165991
166017
166039
166057
166072
166082
166084
166074
166047
165943
165969
165994
166015
166034
166052
166068
166076
166075
166060
165904
165931
165957
165980
166000
166024
166046
166063
166071
166068
165846
165876
165905
165932
165958
165986
166015
166041
166061
166071
165772
165808
165841
165873
165906
165940
165976
166010
166041
166065
165694
165733
165771
165809
165847
165888
165932
165975
166016
166052
165628
165667
165703
165740
165783
165832
165886
165941
165993
166044
165885
165928
165965
165987
166002
166014
166023
166023
166003
165965
165903
165939
165974
166001
166020
166034
166042
166039
166021
165987
165915
165947
165979
166005
166025
166039
166048
166047
166031
165994
165913
165943
165973
165999
166021
166038
166050
166053
166041
166009
165896
165926
165955
165981
166006
166028
166046
166055
166052
166031
165859
165892
165923
165951
165981
166010
166035
166053
166060
166051
165806
165843
165878
165911
165947
165983
166017
166044
166061
166066
165737
165780
165822
165863
165904
165947
165988
166025
166055
166075
165664
165712
165760
165807
165854
165902
165950
165995
166036