/*--------------------------------*- C++ -*----------------------------------*\
  =========                 |
  \\      /  F ield         | OpenFOAM: The Open Source CFD Toolbox
   \\    /   O peration     | Website:  https://openfoam.org
    \\  /    A nd           | Version:  9
     \\/     M anipulation  |
\*---------------------------------------------------------------------------*/
FoamFile
{
    format      ascii;
    class       volScalarField;
    location    "79";
    object      thermo:rho.gas;
}
// * * * * * * * * * * * * * * * * * * * * * * * * * * * * * * * * * * * * * //

dimensions      [1 -3 0 0 0 0 0];

internalField   nonuniform List<scalar> 
137980
(
0.659211
0.660583
0.661108
0.657052
0.652388
0.650393
0.64961
0.649354
0.64944
0.649972
0.66074
0.661793
0.662648
0.660332
0.654632
0.651982
0.651303
0.651276
0.651755
0.652245
0.661726
0.662965
0.663378
0.662418
0.659005
0.653784
0.652001
0.651893
0.652734
0.653806
0.663246
0.664029
0.664308
0.663999
0.662557
0.659373
0.654995
0.653254
0.65319
0.654717
0.664145
0.664439
0.664625
0.664688
0.66426
0.662999
0.660863
0.658209
0.656313
0.656102
0.664316
0.664483
0.664613
0.664854
0.66487
0.664406
0.663285
0.66196
0.660795
0.65988
0.664245
0.664179
0.664174
0.664514
0.664905
0.66481
0.664145
0.663122
0.662159
0.661258
0.663695
0.663337
0.663127
0.663526
0.664456
0.664601
0.664269
0.663313
0.662434
0.661469
0.662732
0.662356
0.662398
0.662798
0.663719
0.663928
0.663752
0.662932
0.662297
0.660975
0.661631
0.661647
0.661861
0.662477
0.663102
0.663227
0.663075
0.662523
0.662003
0.660591
0.657527
0.658589
0.65796
0.653673
0.64985
0.648114
0.64683
0.645226
0.644353
0.644842
0.659211
0.65986
0.659808
0.656552
0.651584
0.649491
0.648628
0.647999
0.647961
0.648404
0.659932
0.66065
0.660448
0.658525
0.654481
0.650603
0.649514
0.649437
0.649944
0.650225
0.661186
0.661536
0.661443
0.660674
0.658385
0.654403
0.651181
0.650517
0.650654
0.652133
0.661827
0.662043
0.662073
0.661715
0.660757
0.658816
0.655833
0.653012
0.652177
0.652757
0.662108
0.662264
0.662357
0.662313
0.661918
0.660996
0.659529
0.657736
0.656118
0.655144
0.66215
0.66221
0.66223
0.662448
0.662428
0.661993
0.661144
0.660079
0.65913
0.658002
0.661887
0.661849
0.66177
0.662011
0.662415
0.662282
0.661701
0.660905
0.660136
0.659183
0.661327
0.661273
0.661339
0.661586
0.662004
0.662004
0.661631
0.660902
0.660338
0.659373
0.660647
0.660784
0.661035
0.661381
0.661612
0.66157
0.661218
0.660687
0.660243
0.659188
0.656059
0.656278
0.655112
0.651053
0.647417
0.645279
0.642702
0.64171
0.639933
0.636251
0.657303
0.657502
0.656169
0.652896
0.648587
0.646156
0.644026
0.641633
0.639942
0.638364
0.657878
0.658142
0.657291
0.654461
0.650521
0.647084
0.645601
0.643444
0.642529
0.642576
0.658908
0.658935
0.65853
0.657003
0.65369
0.649458
0.647273
0.646474
0.646333
0.646998
0.659492
0.659585
0.659381
0.658585
0.656915
0.654043
0.650313
0.648442
0.647966
0.648595
0.659841
0.659945
0.659902
0.65957
0.658691
0.657094
0.654908
0.652546
0.651007
0.650428
0.659946
0.660036
0.66005
0.660051
0.659674
0.658787
0.657442
0.65604
0.65472
0.653457
0.65979
0.659859
0.659851
0.659951
0.660061
0.659616
0.658787
0.657874
0.657035
0.655936
0.659546
0.659634
0.659698
0.659799
0.659926
0.659786
0.659214
0.658519
0.657997
0.657087
0.659204
0.659389
0.659549
0.659681
0.659709
0.659534
0.659099
0.658611
0.65822
0.657327
0.653839
0.653621
0.65197
0.648562
0.645193
0.642511
0.640303
0.640809
0.638845
0.632912
0.654737
0.653838
0.651738
0.648789
0.644956
0.64198
0.639731
0.638801
0.637694
0.633561
0.655371
0.654881
0.653012
0.650002
0.646254
0.642638
0.64037
0.638558
0.63679
0.634253
0.656175
0.655629
0.654559
0.652295
0.648667
0.64431
0.641316
0.639582
0.637727
0.635854
0.656779
0.656548
0.655787
0.654306
0.651707
0.647599
0.64321
0.641189
0.639651
0.638082
0.657257
0.65719
0.656744
0.655802
0.654201
0.651687
0.647834
0.644008
0.64219
0.641478
0.657453
0.657532
0.657383
0.65685
0.655761
0.654284
0.652131
0.649389
0.647012
0.645345
0.657526
0.657585
0.657517
0.657401
0.656823
0.655813
0.654567
0.653122
0.651834
0.650277
0.657429
0.657515
0.657522
0.6575
0.657337
0.656729
0.655822
0.655058
0.654626
0.653797
0.657261
0.657438
0.657494
0.657477
0.657359
0.656959
0.656238
0.655824
0.65583
0.655669
0.650833
0.650566
0.648624
0.646022
0.643299
0.640562
0.638423
0.638486
0.636791
0.632168
0.651148
0.649205
0.647578
0.645362
0.642428
0.639376
0.637257
0.636655
0.636032
0.632444
0.652238
0.6507
0.648495
0.645692
0.642128
0.638517
0.636519
0.635556
0.634779
0.632193
0.652824
0.651628
0.649967
0.647056
0.642934
0.638427
0.635968
0.634734
0.633455
0.632057
0.653644
0.652705
0.651279
0.64895
0.644996
0.639779
0.636147
0.634527
0.633053
0.632215
0.654176
0.653646
0.652524
0.650795
0.647778
0.6429
0.637317
0.634917
0.633297
0.632687
0.654713
0.654402
0.653663
0.652371
0.650448
0.646983
0.640445
0.636313
0.634333
0.633833
0.654982
0.654998
0.654537
0.653713
0.652369
0.650182
0.646065
0.640044
0.637432
0.636271
0.655086
0.655128
0.655016
0.654519
0.653596
0.652136
0.64997
0.647338
0.645835
0.644351
0.654981
0.655081
0.655095
0.654901
0.654307
0.653178
0.65155
0.650803
0.651617
0.652823
0.646905
0.646891
0.645846
0.643677
0.641427
0.63869
0.63587
0.635521
0.63666
0.63504
0.647099
0.645573
0.64442
0.642781
0.640148
0.637135
0.634808
0.634462
0.635633
0.635186
0.648798
0.647408
0.645316
0.642939
0.639649
0.635901
0.633941
0.633449
0.634308
0.634229
0.649688
0.648576
0.646871
0.643994
0.639887
0.635238
0.633195
0.632602
0.632842
0.63346
0.650621
0.649721
0.648173
0.645614
0.641172
0.635337
0.63285
0.632041
0.631908
0.632639
0.651196
0.650725
0.649417
0.64717
0.642955
0.635817
0.632477
0.631477
0.631351
0.632024
0.651608
0.651603
0.650568
0.648554
0.644633
0.636643
0.632583
0.631355
0.631306
0.632154
0.651802
0.652109
0.651593
0.649915
0.646503
0.638663
0.6332
0.631671
0.631554
0.632129
0.652062
0.652238
0.652122
0.651004
0.648517
0.642855
0.635142
0.632872
0.632381
0.631226
0.652409
0.652223
0.652144
0.651555
0.649888
0.645914
0.638971
0.63674
0.638529
0.642526
0.64213
0.643188
0.642801
0.641379
0.639997
0.637178
0.633736
0.634956
0.637545
0.633807
0.644068
0.642641
0.641654
0.640269
0.63822
0.634617
0.633112
0.63492
0.636452
0.634199
0.645442
0.644297
0.642329
0.640017
0.63666
0.633376
0.632607
0.634486
0.63602
0.634348
0.646329
0.645367
0.643547
0.640401
0.63574
0.632663
0.632108
0.63411
0.635785
0.63439
0.646979
0.646302
0.644372
0.640912
0.63498
0.632201
0.631734
0.633511
0.63535
0.634546
0.647262
0.647073
0.645167
0.640929
0.634291
0.631843
0.631454
0.633256
0.635219
0.634788
0.647143
0.647559
0.645866
0.640438
0.633708
0.631496
0.63125
0.632844
0.634809
0.63503
0.646851
0.647562
0.646664
0.64071
0.633677
0.631426
0.631362
0.633005
0.634856
0.635497
0.64707
0.647361
0.647083
0.641362
0.634018
0.631615
0.631592
0.632844
0.634517
0.635168
0.647538
0.647518
0.646894
0.642124
0.634577
0.631921
0.631754
0.632921
0.634735
0.636789
0.636441
0.639158
0.638958
0.638131
0.637292
0.635307
0.634862
0.636449
0.635357
0.628733
0.640644
0.639297
0.638031
0.63675
0.6349
0.633837
0.633899
0.634585
0.631288
0.625272
0.641155
0.639981
0.637348
0.634912
0.633307
0.632873
0.633136
0.633194
0.627845
0.621979
0.641634
0.640431
0.637102
0.633682
0.632326
0.632132
0.632648
0.63168
0.624912
0.619384
0.641606
0.640677
0.636761
0.632968
0.631653
0.631556
0.632124
0.630382
0.623617
0.61842
0.641082
0.64069
0.636297
0.632242
0.631018
0.630992
0.631588
0.629861
0.623511
0.618652
0.639864
0.640488
0.636031
0.631771
0.630663
0.630735
0.6313
0.629842
0.62419
0.619774
0.638155
0.640052
0.63583
0.631237
0.630203
0.630335
0.630838
0.630016
0.625691
0.621822
0.637703
0.639179
0.635587
0.6309
0.629961
0.630143
0.6307
0.630223
0.627006
0.623494
0.638453
0.638249
0.634448
0.630087
0.629446
0.629788
0.630328
0.630228
0.62839
0.625431
0.63183
0.633916
0.633742
0.633273
0.632699
0.632472
0.633234
0.632261
0.627225
0.623864
0.635155
0.634518
0.63335
0.632626
0.631859
0.631043
0.631295
0.627645
0.623504
0.623147
0.634786
0.634064
0.632687
0.631242
0.630337
0.630019
0.628534
0.623018
0.620439
0.620077
0.634536
0.633378
0.631309
0.629906
0.629417
0.628633
0.624652
0.619528
0.617337
0.615965
0.633936
0.632588
0.630104
0.629047
0.628578
0.62669
0.621609
0.617144
0.615183
0.613392
0.63344
0.631634
0.629227
0.628346
0.627736
0.625032
0.619708
0.615798
0.613963
0.612286
0.632835
0.630854
0.628767
0.627978
0.626972
0.623854
0.618642
0.615212
0.613324
0.611907
0.63197
0.630344
0.628294
0.627459
0.626363
0.623268
0.618506
0.615093
0.613144
0.611903
0.630905
0.630079
0.627992
0.627118
0.626008
0.623226
0.618697
0.61523
0.613154
0.611988
0.630794
0.629688
0.627459
0.626555
0.625774
0.623587
0.619543
0.615929
0.613483
0.612219
0.624848
0.627609
0.626405
0.626116
0.626218
0.626713
0.624695
0.620973
0.618805
0.617609
0.627684
0.62822
0.626657
0.626219
0.626225
0.625276
0.621241
0.618659
0.617168
0.617646
0.628382
0.627903
0.626474
0.626124
0.62555
0.622288
0.618193
0.615819
0.615687
0.615881
0.628208
0.627068
0.625936
0.625603
0.623657
0.618945
0.615279
0.614236
0.613606
0.613113
0.627674
0.626327
0.625564
0.624565
0.621271
0.616337
0.613454
0.612596
0.611632
0.610829
0.627103
0.625646
0.624826
0.623239
0.619214
0.614495
0.612326
0.611321
0.610276
0.609515
0.626449
0.625256
0.624409
0.622133
0.617864
0.613447
0.611501
0.610304
0.609295
0.608617
0.625952
0.625019
0.623693
0.621164
0.616968
0.612796
0.610949
0.609578
0.608629
0.608088
0.625598
0.624737
0.623324
0.62078
0.616828
0.61274
0.610553
0.608784
0.607954
0.607659
0.625335
0.624247
0.62262
0.620405
0.617074
0.61311
0.61044
0.608182
0.607319
0.607644
0.612259
0.615542
0.616831
0.617443
0.618758
0.619129
0.615548
0.615158
0.615174
0.615798
0.613462
0.616939
0.617498
0.617991
0.618957
0.618005
0.614626
0.61471
0.614424
0.613817
0.616609
0.617709
0.617653
0.618863
0.618638
0.615754
0.613761
0.613485
0.611222
0.610941
0.617599
0.617782
0.618254
0.618956
0.617387
0.613975
0.612768
0.610728
0.609232
0.609075
0.617912
0.618082
0.618971
0.618503
0.615273
0.612937
0.611159
0.608635
0.607939
0.607387
0.618248
0.61877
0.61896
0.617369
0.614005
0.611907
0.609306
0.607742
0.606787
0.605627
0.6187
0.619265
0.618701
0.61635
0.613203
0.610904
0.608287
0.606936
0.605665
0.604146
0.619167
0.619283
0.618231
0.615395
0.612778
0.610383
0.607668
0.606212
0.604709
0.603303
0.619143
0.619089
0.617888
0.615045
0.612609
0.61
0.607329
0.605465
0.603683
0.602726
0.618806
0.618818
0.617248
0.614627
0.612636
0.610407
0.607347
0.604703
0.602184
0.602619
0.607659
0.609073
0.60957
0.610273
0.610466
0.609428
0.606947
0.605757
0.604634
0.605279
0.608245
0.609509
0.609963
0.610496
0.610275
0.608887
0.606776
0.605729
0.60484
0.605768
0.610155
0.61023
0.610696
0.610621
0.609974
0.60853
0.606761
0.605825
0.605204
0.60649
0.611657
0.611352
0.611093
0.610636
0.609665
0.608069
0.606718
0.60596
0.605682
0.607206
0.612368
0.612104
0.611535
0.610387
0.608932
0.607413
0.606571
0.606279
0.606623
0.60728
0.61278
0.612989
0.611895
0.610075
0.608355
0.607134
0.606856
0.607122
0.607017
0.606836
0.611499
0.613202
0.61253
0.610296
0.608639
0.607847
0.60769
0.607478
0.606923
0.605927
0.609342
0.61242
0.612645
0.610791
0.60929
0.608448
0.608061
0.607546
0.606643
0.605072
0.60882
0.61194
0.612703
0.611069
0.609991
0.609264
0.608485
0.607421
0.606124
0.60464
0.606973
0.610971
0.612462
0.611387
0.610314
0.609763
0.608958
0.607635
0.605655
0.604602
0.604995
0.60439
0.604096
0.603849
0.603736
0.602407
0.602036
0.602029
0.601974
0.60114
0.604253
0.604409
0.604473
0.60448
0.604264
0.604145
0.603414
0.601891
0.6012
0.600516
0.603928
0.604011
0.604243
0.604259
0.604031
0.603918
0.604402
0.604181
0.603611
0.601886
0.603362
0.603226
0.603451
0.603909
0.603961
0.603595
0.603654
0.604348
0.604121
0.602532
0.602223
0.602266
0.602438
0.602947
0.60319
0.603311
0.60328
0.603738
0.603782
0.602096
0.601362
0.601615
0.601916
0.602418
0.602597
0.602806
0.602899
0.602977
0.603443
0.60175
0.600793
0.601114
0.601544
0.602148
0.602307
0.602445
0.602446
0.602392
0.602569
0.601858
0.600394
0.600702
0.601266
0.601913
0.601976
0.602098
0.60205
0.601887
0.601826
0.601464
0.60062
0.600977
0.601461
0.601869
0.601895
0.602202
0.60188
0.601523
0.601199
0.601084
0.601078
0.601404
0.601912
0.602128
0.602581
0.603036
0.602387
0.601612
0.601079
0.60179
0.5976
0.59717
0.596835
0.596518
0.596288
0.59616
0.59613
0.595906
0.595529
0.595332
0.596279
0.595972
0.595879
0.595825
0.595846
0.595975
0.596049
0.595871
0.595627
0.595391
0.595351
0.595321
0.595345
0.595402
0.595576
0.595761
0.595884
0.595829
0.5957
0.595595
0.594682
0.594835
0.594925
0.595042
0.59532
0.595576
0.595737
0.595797
0.595757
0.595734
0.594467
0.594644
0.594713
0.595077
0.595313
0.595598
0.595844
0.595942
0.595921
0.595822
0.594574
0.594754
0.595066
0.595573
0.595856
0.595983
0.596299
0.596311
0.596249
0.595958
0.595058
0.595591
0.595805
0.59615
0.596205
0.596405
0.596405
0.596358
0.596261
0.595696
0.596308
0.596237
0.596329
0.596499
0.596557
0.596411
0.596236
0.596212
0.596118
0.595427
0.596704
0.596663
0.596808
0.597035
0.596666
0.596215
0.595826
0.595887
0.595899
0.595674
0.596757
0.597273
0.597623
0.597381
0.59659
0.595923
0.595192
0.595662
0.596189
0.597581
0.59131
0.591429
0.591773
0.591833
0.591714
0.591437
0.590969
0.590176
0.58937
0.586427
0.591018
0.59118
0.591442
0.591479
0.591335
0.591136
0.590795
0.590283
0.589299
0.58657
0.591016
0.591211
0.591451
0.591435
0.591263
0.591016
0.590612
0.58989
0.588156
0.584925
0.591216
0.591297
0.591456
0.591346
0.591164
0.590816
0.59008
0.588318
0.58567
0.584
0.591472
0.591531
0.591616
0.591452
0.591188
0.590459
0.588452
0.586418
0.58502
0.584718
0.591546
0.591729
0.591711
0.591494
0.591125
0.58944
0.587203
0.586536
0.586997
0.585869
0.59161
0.591942
0.591838
0.591592
0.590953
0.588495
0.588228
0.589243
0.588023
0.586395
0.591524
0.59197
0.591811
0.591561
0.590764
0.58993
0.59061
0.590309
0.589559
0.587654
0.591287
0.591903
0.591873
0.591612
0.591223
0.59159
0.592068
0.592148
0.592019
0.591442
0.590864
0.592287
0.59204
0.591397
0.591094
0.591727
0.592404
0.592793
0.593069
0.593105
0.586251
0.586368
0.586108
0.585828
0.585575
0.585233
0.585037
0.584069
0.584109
0.586947
0.586124
0.586096
0.585719
0.585523
0.585392
0.585455
0.585355
0.583895
0.584209
0.585268
0.58631
0.585868
0.585352
0.585395
0.585403
0.585572
0.585264
0.583492
0.583518
0.583978
0.586508
0.585653
0.585164
0.585529
0.585634
0.58548
0.584755
0.582269
0.582138
0.583224
0.586516
0.585394
0.585129
0.585903
0.585885
0.585214
0.582845
0.58026
0.580378
0.581934
0.586258
0.585155
0.585448
0.58635
0.585797
0.584075
0.580376
0.579421
0.579853
0.580935
0.585946
0.584966
0.585954
0.586378
0.585448
0.582157
0.579825
0.579584
0.57994
0.58044
0.585637
0.58483
0.586128
0.586249
0.584914
0.581477
0.580045
0.579719
0.579661
0.579685
0.585244
0.584829
0.586182
0.58614
0.584441
0.58104
0.579939
0.579458
0.579182
0.578841
0.584572
0.585105
0.586447
0.585903
0.58341
0.58078
0.580121
0.579645
0.579188
0.578418
0.575894
0.578082
0.580778
0.581843
0.582303
0.582313
0.581913
0.581599
0.578702
0.576554
0.574465
0.577634
0.580316
0.581476
0.581926
0.581916
0.581632
0.58123
0.580602
0.577493
0.574205
0.577643
0.580232
0.581202
0.581547
0.581507
0.581298
0.580915
0.580472
0.578994
0.574589
0.578322
0.58034
0.581011
0.581156
0.581045
0.580857
0.580389
0.579969
0.579015
0.575781
0.57926
0.580498
0.58078
0.580657
0.580514
0.580312
0.579845
0.57942
0.578425
0.577955
0.580162
0.580538
0.580449
0.579983
0.579783
0.579541
0.57927
0.57893
0.576749
0.580119
0.580699
0.580441
0.57966
0.579073
0.578813
0.578676
0.57858
0.577703
0.57353
0.581219
0.580937
0.580013
0.578634
0.577916
0.57764
0.577633
0.577626
0.576865
0.572364
0.581577
0.580916
0.579299
0.577592
0.576646
0.576266
0.576156
0.576116
0.575644
0.571943
0.581406
0.581564
0.579386
0.577088
0.575528
0.574817
0.574568
0.574674
0.574656
0.574031
0.562691
0.56372
0.569752
0.572228
0.573091
0.573123
0.572937
0.573352
0.573961
0.57418
0.560399
0.564258
0.569201
0.572102
0.573348
0.573884
0.573412
0.572952
0.573099
0.573291
0.560422
0.56458
0.569006
0.572274
0.573803
0.57449
0.574776
0.573318
0.57278
0.572398
0.560851
0.564679
0.569033
0.572624
0.574493
0.574933
0.575311
0.575044
0.572877
0.572384
0.561826
0.56518
0.570101
0.573557
0.575259
0.575836
0.575632
0.575377
0.573395
0.572499
0.562862
0.567154
0.572133
0.574355
0.575273
0.575789
0.576024
0.575709
0.573971
0.572201
0.565353
0.570744
0.573379
0.574403
0.574837
0.575159
0.575385
0.575397
0.574161
0.571396
0.570991
0.572986
0.573812
0.573927
0.57384
0.573881
0.573981
0.574112
0.573408
0.570355
0.57386
0.574059
0.573764
0.572949
0.572008
0.571701
0.571582
0.57161
0.571301
0.568785
0.574939
0.574844
0.573514
0.571134
0.569057
0.56821
0.567933
0.568106
0.568357
0.568697
0.565633
0.565811
0.565003
0.56396
0.56321
0.562489
0.560999
0.559101
0.557913
0.555784
0.564724
0.564866
0.563818
0.56224
0.560055
0.557202
0.555038
0.553819
0.55365
0.554201
0.563897
0.563238
0.561057
0.557754
0.555473
0.554286
0.553632
0.553357
0.553649
0.556757
0.561935
0.559828
0.5572
0.555406
0.554555
0.554005
0.553449
0.553722
0.556536
0.558742
0.561247
0.558187
0.555921
0.555008
0.554462
0.553927
0.554095
0.555557
0.556422
0.556319
0.562161
0.558747
0.556091
0.555156
0.55465
0.554314
0.554662
0.555831
0.555775
0.555298
0.56344
0.560508
0.556924
0.555601
0.554967
0.554401
0.554421
0.555286
0.55513
0.554688
0.56462
0.563623
0.560609
0.556956
0.555608
0.554733
0.554049
0.553812
0.554033
0.553777
0.565041
0.564995
0.564203
0.561612
0.557913
0.555907
0.554448
0.552571
0.551549
0.552775
0.565713
0.565891
0.565702
0.564926
0.563353
0.560707
0.558556
0.552609
0.547671
0.549546
0.552294
0.552144
0.551502
0.551688
0.556845
0.563355
0.566496
0.57305
0.576299
0.583131
0.551337
0.551482
0.550921
0.551049
0.555491
0.562908
0.567857
0.583278
0.593023
0.594578
0.54917
0.550493
0.550283
0.550418
0.553228
0.561967
0.570757
0.583399
0.58407
0.572661
0.546359
0.548472
0.549169
0.549147
0.55103
0.560901
0.569568
0.581563
0.573097
0.564123
0.545252
0.546364
0.54741
0.547633
0.549428
0.559669
0.565715
0.575154
0.564269
0.556047
0.545659
0.545354
0.546036
0.546434
0.548342
0.558121
0.562973
0.565311
0.559812
0.553915
0.544987
0.544732
0.545198
0.545804
0.54794
0.556377
0.562103
0.559317
0.557322
0.55381
0.545374
0.544459
0.544889
0.545789
0.548218
0.555457
0.561386
0.558776
0.555558
0.554321
0.560807
0.557621
0.557038
0.552122
0.552201
0.556275
0.561148
0.560652
0.557567
0.556589
0.582659
0.566525
0.560092
0.557401
0.562401
0.563576
0.56414
0.562715
0.560311
0.556602
0.742545
0.750809
0.789769
0.823311
0.836562
0.842992
0.841441
0.836213
0.831727
0.833951
0.741141
0.734274
0.746471
0.776031
0.802103
0.829759
0.852276
0.850889
0.865537
0.872941
0.746958
0.732978
0.734219
0.74733
0.774862
0.813809
0.85875
0.865324
0.873819
0.87575
0.790574
0.744743
0.738584
0.746397
0.772759
0.809517
0.854623
0.86476
0.874048
0.877755
0.831568
0.806422
0.767854
0.754489
0.767306
0.796552
0.833024
0.86084
0.874017
0.874298
0.841941
0.842721
0.823894
0.794033
0.77313
0.787402
0.803527
0.844181
0.869206
0.872343
0.845487
0.850158
0.836767
0.815397
0.813736
0.815321
0.820806
0.836128
0.863134
0.868299
0.848671
0.85599
0.867971
0.87638
0.878566
0.876449
0.862106
0.845961
0.861992
0.867398
0.8636
0.874369
0.885268
0.888752
0.883805
0.881581
0.863892
0.846567
0.826606
0.840654
0.887848
0.894671
0.899482
0.89922
0.886895
0.875796
0.871021
0.800446
0.740275
0.851733
1.01205
1.01409
1.02142
1.0243
1.02426
1.02019
1.00959
1.00446
0.999742
0.995733
1.0117
1.01566
1.02032
1.02387
1.02538
1.02541
1.01686
1.01027
1.00261
1.0042
1.01328
1.01413
1.01636
1.0176
1.02322
1.03094
1.03234
1.02749
1.02224
1.02074
1.01369
1.01365
1.01426
1.01554
1.01684
1.01869
1.03554
1.03875
1.03622
1.03516
1.01056
1.01165
1.0125
1.01405
1.01565
1.01636
1.02081
1.03287
1.03839
1.03897
1.00113
1.00382
1.00702
1.00953
1.01247
1.01444
1.0159
1.01887
1.02602
1.02444
0.987484
0.991448
0.995886
1.00051
1.00529
1.01025
1.01336
1.01497
1.0149
1.01383
0.995746
0.992442
0.993602
0.995977
0.998805
1.00311
1.0076
1.00847
1.01011
1.01208
1.00053
0.993483
0.993629
0.995246
0.997668
1.00221
1.0062
1.01044
1.02737
1.02571
1.0075
0.995409
0.994652
0.996233
0.998931
1.00338
1.00805
1.02208
1.02917
1.0285
1.01793
1.01488
1.0078
1.00593
1.00559
1.00904
1.03386
1.07099
1.09013
1.08966
1.02006
1.02135
1.01733
1.01685
1.02068
1.04398
1.07134
1.09016
1.09754
1.08734
1.02028
1.03361
1.04124
1.04826
1.05968
1.07076
1.08111
1.09477
1.09977
1.08464
1.02521
1.0246
1.03373
1.04417
1.05297
1.06216
1.07594
1.09286
1.10053
1.09443
1.03653
1.03815
1.03416
1.03339
1.0338
1.03392
1.0438
1.0721
1.09518
1.0997
1.01215
1.01331
1.01888
1.02381
1.02385
1.02187
1.02298
1.0345
1.06933
1.09668
1.02457
1.01828
1.01633
1.01677
1.01645
1.01461
1.01461
1.0205
1.0503
1.08744
1.04905
1.04284
1.02713
1.0199
1.01632
1.01373
1.01422
1.02065
1.05673
1.09153
1.04298
1.04127
1.03001
1.02137
1.01601
1.01404
1.01592
1.03544
1.08708
1.0971
1.04316
1.02857
1.02738
1.01966
1.01592
1.01648
1.04073
1.08962
1.09417
1.09282
1.09471
1.08909
1.08256
1.10102
1.10321
1.09513
1.08874
1.08758
1.09771
1.10349
1.0928
1.0957
1.10778
1.11849
1.11747
1.10587
1.09502
1.09253
1.10233
1.10713
1.10455
1.11259
1.11724
1.1181
1.11801
1.11628
1.112
1.10785
1.10772
1.10906
1.11698
1.1193
1.11848
1.11547
1.11456
1.11433
1.11483
1.11486
1.11436
1.11259
1.11457
1.11784
1.11788
1.11516
1.1122
1.11088
1.11058
1.11098
1.11322
1.11406
1.10609
1.11478
1.11604
1.11454
1.1116
1.10912
1.10848
1.1089
1.11161
1.11396
1.08705
1.10996
1.11285
1.11221
1.10985
1.10824
1.10803
1.10968
1.11316
1.11414
1.09232
1.10925
1.11078
1.10997
1.10786
1.1063
1.10617
1.10791
1.11163
1.11295
1.1037
1.10996
1.11038
1.10912
1.10749
1.10535
1.10399
1.10369
1.10366
1.10435
1.11038
1.11158
1.11111
1.10918
1.10762
1.10595
1.10446
1.10326
1.10247
1.10282
0.951887
0.922464
0.911823
0.90994
0.911443
0.915127
0.922575
0.932101
0.943075
0.947566
0.972689
0.942626
0.919998
0.911041
0.908414
0.909016
0.911642
0.919528
0.937539
0.947305
0.981163
0.961737
0.941036
0.921784
0.912017
0.909113
0.909432
0.911687
0.920249
0.939893
0.98231
0.972188
0.954015
0.938964
0.923578
0.913376
0.91014
0.910465
0.912848
0.921124
0.98229
0.972192
0.961467
0.946286
0.934891
0.923443
0.914367
0.911174
0.911633
0.914683
0.980388
0.968156
0.957937
0.945921
0.934197
0.926248
0.918838
0.913114
0.911616
0.912679
0.976132
0.960987
0.945952
0.934782
0.926395
0.922193
0.917839
0.913651
0.911084
0.911562
0.97419
0.951202
0.934092
0.922674
0.916366
0.913691
0.913263
0.912516
0.910756
0.910423
0.973487
0.946546
0.932222
0.923996
0.917811
0.914268
0.912864
0.912092
0.910769
0.910325
0.977181
0.947532
0.934506
0.929122
0.925315
0.921114
0.917339
0.91458
0.913429
0.911657
0.972053
0.940626
0.923106
0.914791
0.912659
0.913824
0.917191
0.922035
0.931036
0.940727
0.986711
0.961801
0.933142
0.917425
0.910456
0.908299
0.908893
0.911281
0.918907
0.935928
0.992671
0.978971
0.956669
0.934106
0.917905
0.910367
0.908257
0.908533
0.910758
0.917627
0.993651
0.987343
0.974045
0.954355
0.937095
0.920876
0.911789
0.909201
0.909495
0.911324
0.993769
0.987102
0.980653
0.967659
0.950177
0.937499
0.923767
0.913536
0.910528
0.910904
0.992743
0.984603
0.977837
0.968196
0.954749
0.940903
0.931292
0.921415
0.913624
0.911639
0.989665
0.979628
0.968302
0.95758
0.947813
0.937425
0.929425
0.922932
0.916597
0.912111
0.987382
0.972686
0.954652
0.939676
0.929401
0.923758
0.920315
0.918912
0.916163
0.913031
0.986885
0.970696
0.948552
0.933187
0.923832
0.918168
0.915581
0.914743
0.91402
0.912335
0.990412
0.974634
0.948324
0.934189
0.927325
0.923063
0.919472
0.9164
0.915217
0.912616
0.981464
0.953994
0.935697
0.924928
0.917815
0.914602
0.915513
0.917539
0.921622
0.930204
0.99133
0.969857
0.942503
0.925144
0.914215
0.908813
0.907607
0.908206
0.910647
0.917618
0.996477
0.986475
0.96434
0.939485
0.921718
0.911844
0.907793
0.906833
0.907237
0.90885
0.998464
0.994006
0.984947
0.964693
0.943772
0.928108
0.915276
0.909165
0.907795
0.908167
0.998716
0.994602
0.990462
0.982171
0.9643
0.946185
0.933855
0.920684
0.911682
0.909487
0.997736
0.992078
0.987688
0.982026
0.970166
0.953417
0.939449
0.93043
0.920726
0.912971
0.995147
0.987557
0.979871
0.971871
0.961979
0.948999
0.936999
0.928796
0.922958
0.917069
0.992386
0.98266
0.969374
0.95444
0.941536
0.931499
0.924375
0.919939
0.918235
0.915658
0.990908
0.981578
0.966549
0.948123
0.933534
0.924016
0.918554
0.916014
0.915358
0.914119
0.994395
0.986439
0.970635
0.94776
0.932779
0.925326
0.921852
0.919378
0.918765
0.917286
0.984377
0.964013
0.948125
0.935292
0.925662
0.917593
0.914669
0.914795
0.916126
0.922201
0.991815
0.970748
0.950005
0.932514
0.919154
0.910817
0.90699
0.906441
0.906979
0.908439
0.99629
0.985391
0.962127
0.940551
0.92457
0.913988
0.90797
0.905639
0.90536
0.905673
0.99892
0.994057
0.983494
0.962283
0.943615
0.930155
0.918954
0.910709
0.907093
0.906468
0.99988
0.997099
0.992711
0.9831
0.964819
0.947381
0.936272
0.926852
0.916248
0.909927
0.999475
0.996019
0.993071
0.988331
0.977599
0.959889
0.943879
0.933475
0.926429
0.918171
0.997413
0.991782
0.986411
0.979136
0.969423
0.955755
0.941639
0.930599
0.924924
0.920168
0.994022
0.986185
0.978085
0.965452
0.951581
0.939204
0.92879
0.921478
0.918143
0.915977
0.991904
0.98525
0.977295
0.962523
0.945843
0.932285
0.923964
0.918512
0.916642
0.915562
0.993343
0.990143
0.982879
0.966599
0.945964
0.931399
0.924781
0.921871
0.921456
0.920877
0.986982
0.970523
0.957206
0.947557
0.93314
0.920396
0.913931
0.911944
0.912128
0.914538
0.990591
0.972434
0.954364
0.939668
0.924461
0.913141
0.907156
0.904918
0.904777
0.904718
0.993832
0.980807
0.959373
0.942133
0.927346
0.915917
0.909035
0.90535
0.903906
0.903861
0.996613
0.990995
0.978096
0.957358
0.940502
0.929812
0.923226
0.915908
0.90906
0.90594
0.998071
0.995147
0.990046
0.979105
0.961066
0.944787
0.934742
0.92868
0.921811
0.914221
0.998542
0.99606
0.993053
0.987466
0.975493
0.95784
0.942409
0.932226
0.926628
0.92122
0.997938
0.994103
0.988794
0.983066
0.973257
0.95832
0.942944
0.930842
0.924171
0.920232
0.99502
0.987322
0.981386
0.973281
0.960815
0.947701
0.935698
0.925585
0.920078
0.917711
0.991499
0.986194
0.981325
0.972697
0.958091
0.942386
0.929884
0.922098
0.918749
0.9175
0.991383
0.990243
0.986994
0.978682
0.961147
0.943097
0.929633
0.923494
0.921606
0.9212
0.988529
0.975902
0.965279
0.958562
0.943819
0.924099
0.913659
0.909965
0.908401
0.908805
0.989203
0.973324
0.956732
0.944066
0.930914
0.917043
0.908614
0.904294
0.902933
0.902559
0.990645
0.975839
0.957859
0.943442
0.930981
0.919013
0.910837
0.905766
0.903212
0.902454
0.993421
0.985283
0.967129
0.949486
0.93748
0.931533
0.926201
0.918067
0.910409
0.90681
0.995443
0.991846
0.984688
0.970253
0.953391
0.940693
0.933611
0.930427
0.925474
0.918253
0.996255
0.993814
0.990388
0.984003
0.971161
0.954117
0.939513
0.930458
0.926101
0.923352
0.996347
0.99327
0.988165
0.983463
0.976556
0.962697
0.945552
0.932006
0.924131
0.920247
0.994798
0.988063
0.982494
0.977176
0.968736
0.956346
0.941851
0.929654
0.922771
0.919307
0.990719
0.985894
0.983146
0.978156
0.967492
0.952782
0.938299
0.927884
0.922449
0.919828
0.989603
0.98903
0.987217
0.982351
0.970485
0.95345
0.93807
0.92817
0.923901
0.921547
0.989666
0.980817
0.973942
0.968157
0.955768
0.930257
0.914875
0.908589
0.905961
0.905266
0.987755
0.974129
0.960782
0.949488
0.937691
0.922594
0.910673
0.904314
0.901623
0.900903
0.987047
0.972779
0.956623
0.943807
0.934566
0.923662
0.913009
0.906247
0.90258
0.901501
0.988511
0.976203
0.959012
0.945748
0.936995
0.932343
0.925481
0.916558
0.909459
0.906707
0.991614
0.985236
0.970905
0.955558
0.944921
0.937964
0.934541
0.930705
0.925158
0.919043
0.993308
0.990269
0.985162
0.976614
0.962232
0.9473
0.936535
0.929842
0.927868
0.925053
0.993966
0.990799
0.985711
0.981222
0.975285
0.964012
0.949023
0.934649
0.925717
0.921845
0.992967
0.988159
0.98379
0.979507
0.97379
0.962615
0.948536
0.934877
0.925052
0.920176
0.99021
0.985817
0.983671
0.980403
0.973199
0.959885
0.944526
0.932529
0.924426
0.920198
0.988588
0.987866
0.986394
0.982889
0.975231
0.961553
0.946442
0.934808
0.927993
0.922132
0.989589
0.984592
0.980563
0.975171
0.965862
0.943892
0.920295
0.908965
0.904551
0.903205
0.987179
0.977104
0.966488
0.956159
0.94518
0.930379
0.914752
0.905582
0.901305
0.899889
0.984487
0.971031
0.956364
0.946332
0.937772
0.927336
0.91564
0.906557
0.901808
0.900526
0.983428
0.968852
0.954427
0.944353
0.93791
0.931055
0.922987
0.913717
0.907226
0.905671
0.985135
0.972127
0.95784
0.947595
0.941
0.936714
0.933124
0.928461
0.922858
0.917991
0.988471
0.981831
0.971371
0.960534
0.950622
0.942022
0.935499
0.93182
0.929159
0.925671
0.990712
0.98678
0.981516
0.977399
0.971806
0.961097
0.948103
0.936884
0.927874
0.924259
0.990396
0.985997
0.983327
0.980901
0.977004
0.969129
0.955468
0.940748
0.928733
0.922132
0.988842
0.986031
0.983651
0.980622
0.975062
0.963752
0.950234
0.936782
0.927343
0.921412
0.987958
0.987002
0.985208
0.981778
0.975502
0.963882
0.95045
0.937881
0.92961
0.922273
0.988587
0.985959
0.983563
0.980069
0.9738
0.958194
0.929488
0.913239
0.905094
0.902497
0.986706
0.980854
0.972671
0.963465
0.95284
0.938709
0.92408
0.911296
0.903299
0.900435
0.982908
0.97062
0.959363
0.950108
0.939422
0.928163
0.916827
0.907669
0.901687
0.89994
0.978141
0.964206
0.952407
0.944406
0.937365
0.929189
0.919432
0.910086
0.904966
0.904325
0.976636
0.962917
0.951602
0.9446
0.938601
0.93436
0.929863
0.924364
0.919374
0.915998
0.978521
0.966068
0.956194
0.949337
0.94384
0.938551
0.934357
0.931045
0.927918
0.924943
0.98395
0.977088
0.972895
0.970222
0.965775
0.956426
0.945166
0.935632
0.928368
0.925057
0.986588
0.982704
0.980804
0.979042
0.97614
0.969721
0.955959
0.941467
0.930501
0.923744
0.986458
0.984803
0.983274
0.980765
0.976634
0.968176
0.955198
0.940952
0.932065
0.923978
0.986633
0.985949
0.983915
0.979778
0.974161
0.965304
0.954156
0.940902
0.934559
0.924409
0.986746
0.985171
0.983788
0.981666
0.97732
0.966078
0.940701
0.921459
0.909973
0.905483
0.985575
0.982106
0.977201
0.970396
0.962053
0.952173
0.936604
0.921862
0.910906
0.905193
0.982364
0.97309
0.963408
0.953008
0.941619
0.930914
0.92193