/*--------------------------------*- C++ -*----------------------------------*\
  =========                 |
  \\      /  F ield         | OpenFOAM: The Open Source CFD Toolbox
   \\    /   O peration     | Website:  https://openfoam.org
    \\  /    A nd           | Version:  9
     \\/     M anipulation  |
\*---------------------------------------------------------------------------*/
FoamFile
{
    format      ascii;
    class       volScalarField;
    location    "79";
    object      thermo:mu.gas;
}
// * * * * * * * * * * * * * * * * * * * * * * * * * * * * * * * * * * * * * //

dimensions      [1 -1 -1 0 0 0 0];

internalField   nonuniform List<scalar> 
137980
(
1.57688e-05
1.57665e-05
1.57653e-05
1.57702e-05
1.57762e-05
1.57796e-05
1.57811e-05
1.57819e-05
1.57821e-05
1.5781e-05
1.57666e-05
1.57648e-05
1.5763e-05
1.57662e-05
1.57729e-05
1.57771e-05
1.57784e-05
1.57786e-05
1.57783e-05
1.57777e-05
1.57651e-05
1.5763e-05
1.5762e-05
1.57635e-05
1.57678e-05
1.57745e-05
1.57774e-05
1.57777e-05
1.57767e-05
1.57754e-05
1.57628e-05
1.57617e-05
1.57611e-05
1.57615e-05
1.57637e-05
1.57674e-05
1.57727e-05
1.57756e-05
1.57758e-05
1.57738e-05
1.57616e-05
1.57612e-05
1.57609e-05
1.57608e-05
1.57614e-05
1.57634e-05
1.57659e-05
1.57686e-05
1.57711e-05
1.57716e-05
1.57613e-05
1.57611e-05
1.57609e-05
1.57605e-05
1.57606e-05
1.57615e-05
1.57632e-05
1.57647e-05
1.57661e-05
1.57668e-05
1.57613e-05
1.57615e-05
1.57616e-05
1.5761e-05
1.57605e-05
1.57609e-05
1.57622e-05
1.57636e-05
1.57647e-05
1.57655e-05
1.57624e-05
1.57631e-05
1.57635e-05
1.57628e-05
1.57613e-05
1.57611e-05
1.57621e-05
1.57636e-05
1.57644e-05
1.57654e-05
1.5764e-05
1.57648e-05
1.57648e-05
1.57642e-05
1.57627e-05
1.57625e-05
1.5763e-05
1.57642e-05
1.57649e-05
1.57661e-05
1.5766e-05
1.5766e-05
1.57658e-05
1.57647e-05
1.57637e-05
1.57636e-05
1.57639e-05
1.57647e-05
1.57652e-05
1.57666e-05
1.57682e-05
1.57662e-05
1.57666e-05
1.57717e-05
1.57769e-05
1.57799e-05
1.57821e-05
1.5785e-05
1.57871e-05
1.57859e-05
1.57656e-05
1.57644e-05
1.57644e-05
1.57682e-05
1.57746e-05
1.57779e-05
1.57794e-05
1.57807e-05
1.57812e-05
1.57806e-05
1.57644e-05
1.57629e-05
1.57635e-05
1.5766e-05
1.57707e-05
1.57764e-05
1.57782e-05
1.57785e-05
1.57782e-05
1.5778e-05
1.57625e-05
1.57615e-05
1.57616e-05
1.5763e-05
1.57662e-05
1.5771e-05
1.57758e-05
1.5777e-05
1.5777e-05
1.5775e-05
1.57615e-05
1.57611e-05
1.5761e-05
1.57615e-05
1.57632e-05
1.57658e-05
1.57692e-05
1.57732e-05
1.57746e-05
1.5774e-05
1.57613e-05
1.5761e-05
1.57609e-05
1.57609e-05
1.57617e-05
1.57634e-05
1.57651e-05
1.57672e-05
1.5769e-05
1.57705e-05
1.57613e-05
1.57614e-05
1.57613e-05
1.5761e-05
1.57611e-05
1.57622e-05
1.57635e-05
1.57647e-05
1.57656e-05
1.57668e-05
1.57619e-05
1.57621e-05
1.57624e-05
1.57618e-05
1.57613e-05
1.57618e-05
1.57629e-05
1.5764e-05
1.57646e-05
1.57656e-05
1.57632e-05
1.57635e-05
1.57635e-05
1.5763e-05
1.57622e-05
1.57624e-05
1.57633e-05
1.57642e-05
1.57648e-05
1.57654e-05
1.57646e-05
1.57645e-05
1.57641e-05
1.57634e-05
1.57631e-05
1.57633e-05
1.57638e-05
1.57645e-05
1.57647e-05
1.57657e-05
1.57671e-05
1.57663e-05
1.57673e-05
1.57719e-05
1.5777e-05
1.57808e-05
1.57847e-05
1.57865e-05
1.57905e-05
1.57982e-05
1.57648e-05
1.57644e-05
1.5766e-05
1.57699e-05
1.57757e-05
1.57796e-05
1.57829e-05
1.57869e-05
1.57902e-05
1.57936e-05
1.57639e-05
1.57634e-05
1.57651e-05
1.57681e-05
1.57731e-05
1.57785e-05
1.57808e-05
1.57841e-05
1.57856e-05
1.57855e-05
1.57623e-05
1.57621e-05
1.57631e-05
1.57651e-05
1.57692e-05
1.57749e-05
1.57784e-05
1.57797e-05
1.57801e-05
1.57793e-05
1.57614e-05
1.57613e-05
1.57618e-05
1.57631e-05
1.57653e-05
1.5769e-05
1.5774e-05
1.57769e-05
1.57777e-05
1.57769e-05
1.57612e-05
1.57611e-05
1.57612e-05
1.57617e-05
1.57631e-05
1.57653e-05
1.57681e-05
1.57713e-05
1.57734e-05
1.57742e-05
1.57612e-05
1.57612e-05
1.57612e-05
1.57612e-05
1.5762e-05
1.57635e-05
1.57651e-05
1.57669e-05
1.57683e-05
1.577e-05
1.57616e-05
1.57615e-05
1.57617e-05
1.57616e-05
1.57616e-05
1.57626e-05
1.57638e-05
1.5765e-05
1.57656e-05
1.57667e-05
1.57622e-05
1.57622e-05
1.57622e-05
1.57621e-05
1.57621e-05
1.57626e-05
1.57635e-05
1.57645e-05
1.57648e-05
1.57654e-05
1.57632e-05
1.57628e-05
1.57626e-05
1.57625e-05
1.57627e-05
1.57632e-05
1.57638e-05
1.57644e-05
1.57646e-05
1.57653e-05
1.57666e-05
1.57667e-05
1.57678e-05
1.57717e-05
1.57765e-05
1.57808e-05
1.57843e-05
1.57831e-05
1.57862e-05
1.57989e-05
1.57646e-05
1.57655e-05
1.57679e-05
1.57717e-05
1.5777e-05
1.57816e-05
1.57851e-05
1.57866e-05
1.57881e-05
1.57985e-05
1.57638e-05
1.57646e-05
1.57667e-05
1.57702e-05
1.57751e-05
1.57806e-05
1.57842e-05
1.57872e-05
1.57908e-05
1.57973e-05
1.57622e-05
1.57636e-05
1.57648e-05
1.57675e-05
1.57722e-05
1.57781e-05
1.5783e-05
1.57859e-05
1.57895e-05
1.5794e-05
1.57615e-05
1.57621e-05
1.57635e-05
1.57653e-05
1.57686e-05
1.57736e-05
1.578e-05
1.57835e-05
1.57865e-05
1.579e-05
1.57613e-05
1.57614e-05
1.57621e-05
1.57636e-05
1.5766e-05
1.57693e-05
1.57733e-05
1.57782e-05
1.57815e-05
1.57832e-05
1.57612e-05
1.57611e-05
1.57614e-05
1.57623e-05
1.57641e-05
1.57663e-05
1.57685e-05
1.57718e-05
1.57749e-05
1.57771e-05
1.57615e-05
1.57614e-05
1.57616e-05
1.57618e-05
1.57629e-05
1.57644e-05
1.57657e-05
1.57676e-05
1.57689e-05
1.57708e-05
1.57619e-05
1.57618e-05
1.57619e-05
1.5762e-05
1.57624e-05
1.57634e-05
1.57645e-05
1.57655e-05
1.57657e-05
1.57666e-05
1.57626e-05
1.57622e-05
1.57621e-05
1.57622e-05
1.57626e-05
1.57633e-05
1.57641e-05
1.57647e-05
1.57647e-05
1.5765e-05
1.57669e-05
1.57673e-05
1.57687e-05
1.57718e-05
1.57756e-05
1.578e-05
1.57834e-05
1.57829e-05
1.5786e-05
1.5796e-05
1.57653e-05
1.57678e-05
1.57697e-05
1.57727e-05
1.5777e-05
1.57821e-05
1.57857e-05
1.57861e-05
1.57871e-05
1.57964e-05
1.57643e-05
1.57663e-05
1.57688e-05
1.57725e-05
1.57776e-05
1.57835e-05
1.5787e-05
1.57886e-05
1.57898e-05
1.57971e-05
1.57636e-05
1.57653e-05
1.57672e-05
1.57709e-05
1.57766e-05
1.57834e-05
1.57881e-05
1.57906e-05
1.57934e-05
1.57977e-05
1.57627e-05
1.57639e-05
1.57659e-05
1.57687e-05
1.57737e-05
1.57808e-05
1.57878e-05
1.57912e-05
1.57949e-05
1.57976e-05
1.5762e-05
1.57628e-05
1.57643e-05
1.57666e-05
1.57703e-05
1.5776e-05
1.57855e-05
1.57908e-05
1.57948e-05
1.5797e-05
1.57617e-05
1.57618e-05
1.57629e-05
1.57648e-05
1.57672e-05
1.57709e-05
1.57795e-05
1.57884e-05
1.5793e-05
1.57948e-05
1.57616e-05
1.57616e-05
1.5762e-05
1.57633e-05
1.57652e-05
1.57677e-05
1.57722e-05
1.57812e-05
1.57872e-05
1.57894e-05
1.5762e-05
1.57618e-05
1.57619e-05
1.57625e-05
1.57638e-05
1.57656e-05
1.5768e-05
1.57713e-05
1.57732e-05
1.57752e-05
1.57626e-05
1.57621e-05
1.5762e-05
1.57623e-05
1.57631e-05
1.57644e-05
1.5766e-05
1.57671e-05
1.57665e-05
1.57653e-05
1.57684e-05
1.57686e-05
1.57692e-05
1.57714e-05
1.57742e-05
1.57785e-05
1.57835e-05
1.57838e-05
1.57819e-05
1.57837e-05
1.57669e-05
1.57692e-05
1.57704e-05
1.57727e-05
1.57766e-05
1.57815e-05
1.57858e-05
1.5786e-05
1.57836e-05
1.57847e-05
1.57651e-05
1.57672e-05
1.57696e-05
1.57728e-05
1.57775e-05
1.57838e-05
1.57878e-05
1.57882e-05
1.57861e-05
1.57868e-05
1.57643e-05
1.57659e-05
1.57679e-05
1.57715e-05
1.57772e-05
1.57848e-05
1.57891e-05
1.57901e-05
1.57897e-05
1.57887e-05
1.57634e-05
1.57645e-05
1.57666e-05
1.57697e-05
1.57754e-05
1.57845e-05
1.579e-05
1.57915e-05
1.57921e-05
1.57912e-05
1.57627e-05
1.57634e-05
1.57651e-05
1.5768e-05
1.57734e-05
1.57836e-05
1.57909e-05
1.57931e-05
1.57938e-05
1.57933e-05
1.57625e-05
1.57625e-05
1.57638e-05
1.57665e-05
1.57716e-05
1.57828e-05
1.57912e-05
1.57941e-05
1.57948e-05
1.57943e-05
1.57628e-05
1.57623e-05
1.57628e-05
1.57649e-05
1.57694e-05
1.578e-05
1.57903e-05
1.57938e-05
1.57947e-05
1.57945e-05
1.57632e-05
1.57625e-05
1.57623e-05
1.57637e-05
1.5767e-05
1.57743e-05
1.57869e-05
1.57913e-05
1.5793e-05
1.57945e-05
1.57632e-05
1.57625e-05
1.57624e-05
1.57629e-05
1.57651e-05
1.57701e-05
1.57805e-05
1.57846e-05
1.57826e-05
1.57767e-05
1.57706e-05
1.57696e-05
1.57697e-05
1.57711e-05
1.57727e-05
1.57767e-05
1.57831e-05
1.57811e-05
1.57791e-05
1.57885e-05
1.57674e-05
1.57696e-05
1.57706e-05
1.57726e-05
1.57756e-05
1.57819e-05
1.57849e-05
1.57813e-05
1.57795e-05
1.57881e-05
1.57658e-05
1.57677e-05
1.577e-05
1.57732e-05
1.57784e-05
1.57845e-05
1.5786e-05
1.57819e-05
1.578e-05
1.57874e-05
1.57651e-05
1.57664e-05
1.57687e-05
1.57729e-05
1.57801e-05
1.57857e-05
1.57867e-05
1.57829e-05
1.57807e-05
1.57865e-05
1.57648e-05
1.57654e-05
1.5768e-05
1.57726e-05
1.57817e-05
1.57866e-05
1.57874e-05
1.57838e-05
1.57815e-05
1.57859e-05
1.57647e-05
1.57648e-05
1.57671e-05
1.5773e-05
1.57831e-05
1.57872e-05
1.5788e-05
1.57848e-05
1.57824e-05
1.57858e-05
1.57654e-05
1.57645e-05
1.57665e-05
1.57742e-05
1.57842e-05
1.57879e-05
1.57887e-05
1.57858e-05
1.57839e-05
1.57859e-05
1.57659e-05
1.5765e-05
1.57657e-05
1.57741e-05
1.57844e-05
1.5788e-05
1.57886e-05
1.57861e-05
1.57852e-05
1.57866e-05
1.57661e-05
1.57653e-05
1.57651e-05
1.57734e-05
1.5784e-05
1.57879e-05
1.57886e-05
1.57875e-05
1.57878e-05
1.57881e-05
1.57655e-05
1.57645e-05
1.57651e-05
1.57717e-05
1.57829e-05
1.57872e-05
1.57884e-05
1.57881e-05
1.57872e-05
1.57841e-05
1.57739e-05
1.57713e-05
1.5771e-05
1.57715e-05
1.57726e-05
1.57753e-05
1.57764e-05
1.57769e-05
1.57908e-05
1.5851e-05
1.57687e-05
1.57701e-05
1.57715e-05
1.57734e-05
1.57762e-05
1.57781e-05
1.57784e-05
1.57809e-05
1.58052e-05
1.58466e-05
1.57683e-05
1.57694e-05
1.57728e-05
1.57763e-05
1.57792e-05
1.57804e-05
1.57807e-05
1.5786e-05
1.58195e-05
1.58409e-05
1.57681e-05
1.5769e-05
1.57732e-05
1.57784e-05
1.57813e-05
1.57823e-05
1.57828e-05
1.57919e-05
1.58254e-05
1.58336e-05
1.57681e-05
1.57688e-05
1.5774e-05
1.578e-05
1.57828e-05
1.57838e-05
1.57846e-05
1.57969e-05
1.58258e-05
1.58318e-05
1.57687e-05
1.5769e-05
1.57746e-05
1.57813e-05
1.57841e-05
1.5785e-05
1.57858e-05
1.57969e-05
1.5825e-05
1.583e-05
1.57695e-05
1.57695e-05
1.5775e-05
1.57822e-05
1.57849e-05
1.57855e-05
1.57861e-05
1.5796e-05
1.58228e-05
1.58285e-05
1.57718e-05
1.57698e-05
1.57751e-05
1.57829e-05
1.57855e-05
1.57861e-05
1.57864e-05
1.5794e-05
1.58175e-05
1.58249e-05
1.57722e-05
1.57703e-05
1.57752e-05
1.57831e-05
1.57856e-05
1.57864e-05
1.57867e-05
1.57923e-05
1.58132e-05
1.58229e-05
1.57719e-05
1.5771e-05
1.57762e-05
1.57837e-05
1.57861e-05
1.57871e-05
1.57874e-05
1.57908e-05
1.58009e-05
1.58148e-05
1.57747e-05
1.5772e-05
1.57724e-05
1.57731e-05
1.57739e-05
1.57747e-05
1.5777e-05
1.57917e-05
1.58719e-05
1.58717e-05
1.57703e-05
1.57713e-05
1.57731e-05
1.5774e-05
1.57751e-05
1.57765e-05
1.57841e-05
1.58295e-05
1.58598e-05
1.58263e-05
1.57698e-05
1.57721e-05
1.57744e-05
1.57761e-05
1.5778e-05
1.57828e-05
1.58029e-05
1.58354e-05
1.58355e-05
1.58092e-05
1.57705e-05
1.57732e-05
1.57761e-05
1.57788e-05
1.57815e-05
1.57911e-05
1.58227e-05
1.58309e-05
1.58186e-05
1.58056e-05
1.57717e-05
1.57742e-05
1.57777e-05
1.57818e-05
1.57864e-05
1.58036e-05
1.58264e-05
1.58257e-05
1.5811e-05
1.58052e-05
1.57726e-05
1.57755e-05
1.57803e-05
1.57845e-05
1.57912e-05
1.5811e-05
1.58244e-05
1.58211e-05
1.5809e-05
1.58059e-05
1.57735e-05
1.57761e-05
1.57814e-05
1.57862e-05
1.57945e-05
1.58154e-05
1.58226e-05
1.58187e-05
1.58089e-05
1.58073e-05
1.57742e-05
1.57768e-05
1.57824e-05
1.57877e-05
1.57964e-05
1.58156e-05
1.58212e-05
1.58175e-05
1.58095e-05
1.58087e-05
1.57759e-05
1.57767e-05
1.57828e-05
1.5788e-05
1.57968e-05
1.58148e-05
1.58204e-05
1.58169e-05
1.58103e-05
1.58105e-05
1.57762e-05
1.5777e-05
1.57829e-05
1.57888e-05
1.5797e-05
1.58121e-05
1.58189e-05
1.5817e-05
1.58113e-05
1.58114e-05
1.57792e-05
1.57754e-05
1.57786e-05
1.578e-05
1.5781e-05
1.57836e-05
1.58184e-05
1.58985e-05
1.58991e-05
1.58888e-05
1.57752e-05
1.57755e-05
1.57792e-05
1.57803e-05
1.57828e-05
1.57997e-05
1.58662e-05
1.58854e-05
1.58556e-05
1.5826e-05
1.57745e-05
1.57767e-05
1.57799e-05
1.57814e-05
1.57904e-05
1.58355e-05
1.58606e-05
1.58552e-05
1.58168e-05
1.58051e-05
1.57759e-05
1.57791e-05
1.57818e-05
1.57852e-05
1.58099e-05
1.58479e-05
1.58509e-05
1.58232e-05
1.58057e-05
1.5801e-05
1.57775e-05
1.57801e-05
1.57833e-05
1.5793e-05
1.58281e-05
1.58431e-05
1.5837e-05
1.58104e-05
1.58023e-05
1.58e-05
1.57789e-05
1.57816e-05
1.57869e-05
1.58024e-05
1.58338e-05
1.58378e-05
1.58249e-05
1.58059e-05
1.58013e-05
1.58e-05
1.57793e-05
1.57823e-05
1.5789e-05
1.58096e-05
1.58341e-05
1.58337e-05
1.58181e-05
1.5804e-05
1.58011e-05
1.58004e-05
1.57796e-05
1.57832e-05
1.5792e-05
1.58143e-05
1.58325e-05
1.58307e-05
1.58137e-05
1.58038e-05
1.58018e-05
1.58023e-05
1.57798e-05
1.57829e-05
1.57923e-05
1.58141e-05
1.58311e-05
1.58293e-05
1.58137e-05
1.5804e-05
1.58027e-05
1.5803e-05
1.57796e-05
1.57827e-05
1.57943e-05
1.58147e-05
1.58297e-05
1.58293e-05
1.58159e-05
1.58055e-05
1.58034e-05
1.58058e-05
1.57921e-05
1.57881e-05
1.57841e-05
1.57822e-05
1.5785e-05
1.57945e-05
1.58997e-05
1.5964e-05
1.59759e-05
1.59795e-05
1.57895e-05
1.57861e-05
1.57817e-05
1.57833e-05
1.57897e-05
1.58239e-05
1.59381e-05
1.59659e-05
1.59649e-05
1.59384e-05
1.57842e-05
1.5782e-05
1.57822e-05
1.57866e-05
1.58042e-05
1.58857e-05
1.5951e-05
1.59563e-05
1.59177e-05
1.5858e-05
1.57796e-05
1.57811e-05
1.57839e-05
1.57934e-05
1.58358e-05
1.59246e-05
1.59468e-05
1.5925e-05
1.5857e-05
1.58287e-05
1.57795e-05
1.57816e-05
1.57878e-05
1.58071e-05
1.58872e-05
1.59324e-05
1.59351e-05
1.58802e-05
1.5834e-05
1.58167e-05
1.57799e-05
1.5784e-05
1.57956e-05
1.58364e-05
1.59105e-05
1.59293e-05
1.59122e-05
1.58512e-05
1.5823e-05
1.58107e-05
1.57807e-05
1.57862e-05
1.58042e-05
1.5861e-05
1.59176e-05
1.59239e-05
1.58937e-05
1.5839e-05
1.58177e-05
1.58085e-05
1.57817e-05
1.57899e-05
1.58151e-05
1.58798e-05
1.59163e-05
1.59158e-05
1.58775e-05
1.58317e-05
1.58154e-05
1.58085e-05
1.5782e-05
1.579e-05
1.58176e-05
1.5885e-05
1.59139e-05
1.5912e-05
1.58738e-05
1.58318e-05
1.58146e-05
1.58081e-05
1.57824e-05
1.57909e-05
1.58261e-05
1.58894e-05
1.59106e-05
1.59096e-05
1.58804e-05
1.58382e-05
1.5815e-05
1.58085e-05
1.57915e-05
1.57889e-05
1.57883e-05
1.57904e-05
1.57943e-05
1.58096e-05
1.58433e-05
1.58463e-05
1.58699e-05
1.59659e-05
1.57894e-05
1.57883e-05
1.57884e-05
1.57916e-05
1.57992e-05
1.58188e-05
1.58513e-05
1.58533e-05
1.58699e-05
1.59513e-05
1.57905e-05
1.57884e-05
1.57907e-05
1.57954e-05
1.58065e-05
1.58314e-05
1.58571e-05
1.58573e-05
1.58744e-05
1.59563e-05
1.58041e-05
1.57959e-05
1.57962e-05
1.5804e-05
1.58202e-05
1.58477e-05
1.58643e-05
1.58656e-05
1.5896e-05
1.59707e-05
1.58161e-05
1.58178e-05
1.58133e-05
1.58259e-05
1.58508e-05
1.58745e-05
1.58831e-05
1.58919e-05
1.59427e-05
1.59773e-05
1.58118e-05
1.58323e-05
1.5846e-05
1.58668e-05
1.58918e-05
1.59096e-05
1.59207e-05
1.5934e-05
1.59649e-05
1.59769e-05
1.58089e-05
1.58215e-05
1.58577e-05
1.59024e-05
1.59244e-05
1.59367e-05
1.59492e-05
1.59584e-05
1.59726e-05
1.59749e-05
1.58104e-05
1.58194e-05
1.58525e-05
1.59125e-05
1.59472e-05
1.59599e-05
1.59657e-05
1.59677e-05
1.59746e-05
1.5969e-05
1.58084e-05
1.58165e-05
1.58413e-05
1.59078e-05
1.59501e-05
1.59696e-05
1.5979e-05
1.59756e-05
1.59752e-05
1.59619e-05
1.58055e-05
1.58154e-05
1.58358e-05
1.5898e-05
1.59478e-05
1.59685e-05
1.59823e-05
1.5984e-05
1.59788e-05
1.59241e-05
1.58289e-05
1.5846e-05
1.58523e-05
1.58663e-05
1.58759e-05
1.58785e-05
1.58302e-05
1.58262e-05
1.58291e-05
1.58541e-05
1.58326e-05
1.58338e-05
1.58429e-05
1.58568e-05
1.58789e-05
1.59027e-05
1.59284e-05
1.59002e-05
1.58885e-05
1.5889e-05
1.58342e-05
1.58345e-05
1.58401e-05
1.58517e-05
1.58696e-05
1.58873e-05
1.59253e-05
1.59536e-05
1.59511e-05
1.59348e-05
1.58369e-05
1.5837e-05
1.58394e-05
1.58491e-05
1.58665e-05
1.58875e-05
1.59011e-05
1.59364e-05
1.59499e-05
1.59367e-05
1.58353e-05
1.58367e-05
1.58393e-05
1.58477e-05
1.58644e-05
1.58875e-05
1.58994e-05
1.59091e-05
1.59324e-05
1.59296e-05
1.58379e-05
1.58392e-05
1.58429e-05
1.58526e-05
1.58657e-05
1.58808e-05
1.5894e-05
1.58996e-05
1.59135e-05
1.59421e-05
1.585e-05
1.58463e-05
1.58487e-05
1.58558e-05
1.58668e-05
1.58783e-05
1.5889e-05
1.58931e-05
1.59024e-05
1.59454e-05
1.58654e-05
1.58589e-05
1.58556e-05
1.58598e-05
1.58665e-05
1.58762e-05
1.58856e-05
1.58884e-05
1.58953e-05
1.59424e-05
1.58802e-05
1.58696e-05
1.58579e-05
1.58604e-05
1.58653e-05
1.5877e-05
1.58869e-05
1.58883e-05
1.5891e-05
1.59401e-05
1.58844e-05
1.58709e-05
1.5853e-05
1.58549e-05
1.58653e-05
1.58909e-05
1.58989e-05
1.58922e-05
1.58932e-05
1.5931e-05
1.58591e-05
1.58598e-05
1.58602e-05
1.58625e-05
1.58681e-05
1.58739e-05
1.58772e-05
1.58787e-05
1.58793e-05
1.58774e-05
1.58573e-05
1.5857e-05
1.58579e-05
1.58603e-05
1.58664e-05
1.58726e-05
1.58792e-05
1.58802e-05
1.58796e-05
1.5876e-05
1.58585e-05
1.58586e-05
1.58599e-05
1.58633e-05
1.58691e-05
1.58732e-05
1.58774e-05
1.58788e-05
1.58781e-05
1.58753e-05
1.58608e-05
1.58619e-05
1.5865e-05
1.58704e-05
1.58729e-05
1.5875e-05
1.58768e-05
1.58779e-05
1.58775e-05
1.58753e-05
1.58637e-05
1.58667e-05
1.58718e-05
1.58733e-05
1.58739e-05
1.58751e-05
1.58764e-05
1.58768e-05
1.58766e-05
1.58748e-05
1.58675e-05
1.58743e-05
1.58752e-05
1.58749e-05
1.58732e-05
1.58729e-05
1.5874e-05
1.58748e-05
1.58751e-05
1.5874e-05
1.58731e-05
1.58789e-05
1.58775e-05
1.58719e-05
1.58694e-05
1.58709e-05
1.58727e-05
1.58736e-05
1.58734e-05
1.58727e-05
1.58832e-05
1.58813e-05
1.58717e-05
1.58677e-05
1.5869e-05
1.58709e-05
1.58731e-05
1.58734e-05
1.58732e-05
1.58714e-05
1.58862e-05
1.58744e-05
1.58663e-05
1.5868e-05
1.58701e-05
1.58743e-05
1.58742e-05
1.58739e-05
1.58718e-05
1.58795e-05
1.5884e-05
1.58652e-05
1.58665e-05
1.58714e-05
1.58774e-05
1.58793e-05
1.58723e-05
1.58727e-05
1.58797e-05
1.59344e-05
1.58649e-05
1.58696e-05
1.58733e-05
1.58734e-05
1.58728e-05
1.58727e-05
1.58727e-05
1.58729e-05
1.58747e-05
1.58803e-05
1.58636e-05
1.58689e-05
1.58738e-05
1.58752e-05
1.58749e-05
1.58741e-05
1.5874e-05
1.58744e-05
1.58779e-05
1.58788e-05
1.58643e-05
1.58701e-05
1.58756e-05
1.58772e-05
1.58768e-05
1.58763e-05
1.58765e-05
1.58784e-05
1.58844e-05
1.58857e-05
1.58662e-05
1.5872e-05
1.58776e-05
1.58787e-05
1.58781e-05
1.58782e-05
1.58806e-05
1.5888e-05
1.58966e-05
1.58978e-05
1.58678e-05
1.58746e-05
1.58804e-05
1.58805e-05
1.58795e-05
1.58818e-05
1.58937e-05
1.59054e-05
1.59138e-05
1.59139e-05
1.587e-05
1.58778e-05
1.58826e-05
1.58817e-05
1.58813e-05
1.58929e-05
1.59163e-05
1.59278e-05
1.59388e-05
1.59278e-05
1.58715e-05
1.58811e-05
1.58859e-05
1.58836e-05
1.58864e-05
1.59199e-05
1.59454e-05
1.59567e-05
1.59508e-05
1.59359e-05
1.58723e-05
1.58842e-05
1.58889e-05
1.58861e-05
1.59013e-05
1.5944e-05
1.59649e-05
1.59735e-05
1.59751e-05
1.59651e-05
1.58725e-05
1.58871e-05
1.58929e-05
1.58911e-05
1.59153e-05
1.59548e-05
1.59729e-05
1.59832e-05
1.59904e-05
1.59958e-05
1.58718e-05
1.58889e-05
1.5897e-05
1.58981e-05
1.59211e-05
1.5954e-05
1.59691e-05
1.59793e-05
1.59884e-05
1.59977e-05
1.58487e-05
1.58511e-05
1.58581e-05
1.58632e-05
1.58644e-05
1.58646e-05
1.58662e-05
1.58611e-05
1.58515e-05
1.58575e-05
1.58471e-05
1.58507e-05
1.5859e-05
1.58651e-05
1.58665e-05
1.58674e-05
1.5869e-05
1.58589e-05
1.58521e-05
1.58536e-05
1.58483e-05
1.58535e-05
1.58643e-05
1.58698e-05
1.58703e-05
1.58715e-05
1.58718e-05
1.58597e-05
1.58502e-05
1.58527e-05
1.585e-05
1.58566e-05
1.58679e-05
1.58732e-05
1.5874e-05
1.58757e-05
1.58739e-05
1.58594e-05
1.5847e-05
1.585e-05
1.58517e-05
1.58611e-05
1.5874e-05
1.58793e-05
1.58798e-05
1.58815e-05
1.58719e-05
1.58528e-05
1.58442e-05
1.58479e-05
1.58547e-05
1.58661e-05
1.58797e-05
1.58849e-05
1.58857e-05
1.58871e-05
1.58652e-05
1.58504e-05
1.58461e-05
1.58472e-05
1.58568e-05
1.5871e-05
1.58873e-05
1.58922e-05
1.58941e-05
1.58898e-05
1.58643e-05
1.58545e-05
1.58504e-05
1.58482e-05
1.58579e-05
1.58756e-05
1.58928e-05
1.58986e-05
1.58992e-05
1.58909e-05
1.5869e-05
1.58604e-05
1.58549e-05
1.58509e-05
1.58582e-05
1.58779e-05
1.58974e-05
1.59032e-05
1.59018e-05
1.58895e-05
1.58713e-05
1.58644e-05
1.58594e-05
1.58566e-05
1.58564e-05
1.58788e-05
1.59004e-05
1.59051e-05
1.59019e-05
1.58924e-05
1.58841e-05
1.58801e-05
1.58785e-05
1.58862e-05
1.58414e-05
1.58364e-05
1.58402e-05
1.58431e-05
1.58446e-05
1.58459e-05
1.58459e-05
1.58432e-05
1.58394e-05
1.58438e-05
1.58388e-05
1.58371e-05
1.58413e-05
1.58435e-05
1.58459e-05
1.58478e-05
1.58476e-05
1.58453e-05
1.58402e-05
1.58424e-05
1.58389e-05
1.58382e-05
1.58423e-05
1.58453e-05
1.58476e-05
1.58495e-05
1.58493e-05
1.58477e-05
1.5842e-05
1.58392e-05
1.58383e-05
1.58407e-05
1.58444e-05
1.58463e-05
1.58491e-05
1.58513e-05
1.58507e-05
1.58487e-05
1.58436e-05
1.58399e-05
1.58391e-05
1.58431e-05
1.58461e-05
1.58481e-05
1.58511e-05
1.58524e-05
1.58515e-05
1.5849e-05
1.58435e-05
1.58395e-05
1.58421e-05
1.58459e-05
1.58481e-05
1.58493e-05
1.58518e-05
1.58525e-05
1.58513e-05
1.5849e-05
1.5843e-05
1.58475e-05
1.58465e-05
1.58479e-05
1.58497e-05
1.585e-05
1.58524e-05
1.58522e-05
1.58511e-05
1.58487e-05
1.5844e-05
1.58649e-05
1.58488e-05
1.58495e-05
1.58503e-05
1.58498e-05
1.5852e-05
1.58524e-05
1.58517e-05
1.58493e-05
1.5844e-05
1.58618e-05
1.58503e-05
1.58506e-05
1.58495e-05
1.58494e-05
1.5852e-05
1.58531e-05
1.58524e-05
1.58506e-05
1.58458e-05
1.58505e-05
1.58519e-05
1.58505e-05
1.58484e-05
1.58491e-05
1.58532e-05
1.58558e-05
1.58544e-05
1.58525e-05
1.58479e-05
1.58491e-05
1.58424e-05
1.58259e-05
1.5829e-05
1.58302e-05
1.58319e-05
1.58363e-05
1.58378e-05
1.58376e-05
1.58371e-05
1.58396e-05
1.58324e-05
1.58262e-05
1.58285e-05
1.58302e-05
1.58307e-05
1.58324e-05
1.58384e-05
1.58393e-05
1.58385e-05
1.58399e-05
1.58314e-05
1.58279e-05
1.58302e-05
1.58319e-05
1.58316e-05
1.58311e-05
1.58323e-05
1.58401e-05
1.58405e-05
1.58409e-05
1.58316e-05
1.583e-05
1.58321e-05
1.58349e-05
1.58357e-05
1.58333e-05
1.58304e-05
1.58321e-05
1.58414e-05
1.58408e-05
1.58313e-05
1.58315e-05
1.58363e-05
1.58393e-05
1.58395e-05
1.58374e-05
1.58347e-05
1.58301e-05
1.58394e-05
1.58408e-05
1.58309e-05
1.5836e-05
1.58428e-05
1.58445e-05
1.5844e-05
1.58416e-05
1.58386e-05
1.58328e-05
1.58338e-05
1.58408e-05
1.58354e-05
1.58456e-05
1.58487e-05
1.58493e-05
1.58485e-05
1.58467e-05
1.58432e-05
1.58357e-05
1.58331e-05
1.58409e-05
1.58517e-05
1.58543e-05
1.58545e-05
1.58547e-05
1.58542e-05
1.58527e-05
1.58491e-05
1.58402e-05
1.58348e-05
1.58396e-05
1.58629e-05
1.58598e-05
1.58598e-05
1.58604e-05
1.58592e-05
1.58582e-05
1.58558e-05
1.58489e-05
1.58384e-05
1.5837e-05
1.5865e-05
1.58638e-05
1.58639e-05
1.5862e-05
1.58595e-05
1.58576e-05
1.58571e-05
1.58559e-05
1.58499e-05
1.58493e-05
1.58492e-05
1.58487e-05
1.58478e-05
1.58462e-05
1.58462e-05
1.58478e-05
1.58478e-05
1.58493e-05
1.58573e-05
1.58661e-05
1.58491e-05
1.58484e-05
1.58465e-05
1.58457e-05
1.58463e-05
1.58501e-05
1.58558e-05
1.58618e-05
1.58661e-05
1.58686e-05
1.58485e-05
1.58468e-05
1.58455e-05
1.58479e-05
1.58535e-05
1.58579e-05
1.58604e-05
1.58617e-05
1.58628e-05
1.58577e-05
1.58469e-05
1.58445e-05
1.58479e-05
1.58521e-05
1.58559e-05
1.5858e-05
1.5859e-05
1.58578e-05
1.58517e-05
1.5846e-05
1.58473e-05
1.58442e-05
1.58492e-05
1.5853e-05
1.58554e-05
1.58564e-05
1.58554e-05
1.58514e-05
1.58461e-05
1.58437e-05
1.58469e-05
1.58444e-05
1.5849e-05
1.58521e-05
1.58531e-05
1.58531e-05
1.58513e-05
1.58478e-05
1.58445e-05
1.58428e-05
1.58434e-05
1.58463e-05
1.58476e-05
1.58501e-05
1.58502e-05
1.58497e-05
1.5849e-05
1.58474e-05
1.58445e-05
1.58427e-05
1.58328e-05
1.58439e-05
1.58474e-05
1.58479e-05
1.58484e-05
1.58479e-05
1.58474e-05
1.58467e-05
1.58447e-05
1.58428e-05
1.58301e-05
1.58325e-05
1.58388e-05
1.58442e-05
1.58459e-05
1.58458e-05
1.58459e-05
1.58454e-05
1.58449e-05
1.58423e-05
1.58316e-05
1.58282e-05
1.58302e-05
1.58346e-05
1.58382e-05
1.58407e-05
1.58411e-05
1.5843e-05
1.58444e-05
1.58427e-05
1.58527e-05
1.58538e-05
1.58564e-05
1.58681e-05
1.59077e-05
1.59584e-05
1.59899e-05
1.60445e-05
1.60795e-05
1.61406e-05
1.58512e-05
1.58535e-05
1.58552e-05
1.58634e-05
1.58971e-05
1.59564e-05
1.60051e-05
1.6127e-05
1.62085e-05
1.62238e-05
1.58481e-05
1.58521e-05
1.58538e-05
1.58598e-05
1.58853e-05
1.59555e-05
1.60332e-05
1.61356e-05
1.61458e-05
1.60622e-05
1.58434e-05
1.58484e-05
1.5852e-05
1.58564e-05
1.58763e-05
1.59531e-05
1.6028e-05
1.61246e-05
1.60729e-05
1.59977e-05
1.58447e-05
1.58451e-05
1.58489e-05
1.58532e-05
1.58707e-05
1.5949e-05
1.60046e-05
1.6081e-05
1.6009e-05
1.5938e-05
1.58582e-05
1.58459e-05
1.58476e-05
1.58511e-05
1.58668e-05
1.59414e-05
1.59841e-05
1.60127e-05
1.59765e-05
1.59244e-05
1.58591e-05
1.58493e-05
1.58479e-05
1.58508e-05
1.58664e-05
1.5931e-05
1.59775e-05
1.59708e-05
1.59599e-05
1.59263e-05
1.58675e-05
1.58534e-05
1.58509e-05
1.58549e-05
1.5871e-05
1.59256e-05
1.59732e-05
1.5966e-05
1.59521e-05
1.59367e-05
1.59962e-05
1.59666e-05
1.59589e-05
1.59128e-05
1.59033e-05
1.59313e-05
1.59703e-05
1.59799e-05
1.59703e-05
1.59624e-05
1.61563e-05
1.60375e-05
1.59817e-05
1.59492e-05
1.59725e-05
1.59786e-05
1.59875e-05
1.5989e-05
1.59825e-05
1.59728e-05
1.72933e-05
1.73092e-05
1.74531e-05
1.76045e-05
1.76858e-05
1.77243e-05
1.77197e-05
1.76978e-05
1.76801e-05
1.76944e-05
1.72877e-05
1.72426e-05
1.7282e-05
1.73966e-05
1.75209e-05
1.76617e-05
1.77723e-05
1.77687e-05
1.78423e-05
1.78833e-05
1.73253e-05
1.7242e-05
1.72404e-05
1.72831e-05
1.73878e-05
1.75768e-05
1.78035e-05
1.78395e-05
1.78846e-05
1.79018e-05
1.7544e-05
1.73165e-05
1.72726e-05
1.72916e-05
1.73887e-05
1.75462e-05
1.77835e-05
1.78375e-05
1.78846e-05
1.79046e-05
1.77149e-05
1.76161e-05
1.74413e-05
1.73591e-05
1.73957e-05
1.7494e-05
1.76621e-05
1.7817e-05
1.78811e-05
1.78797e-05
1.77555e-05
1.77564e-05
1.76812e-05
1.75637e-05
1.74476e-05
1.74911e-05
1.75517e-05
1.77255e-05
1.78552e-05
1.78666e-05
1.77643e-05
1.77798e-05
1.77305e-05
1.76491e-05
1.76465e-05
1.7646e-05
1.76563e-05
1.77073e-05
1.78226e-05
1.78458e-05
1.77815e-05
1.78084e-05
1.78748e-05
1.7915e-05
1.79255e-05
1.79177e-05
1.78448e-05
1.77527e-05
1.78207e-05
1.78434e-05
1.78593e-05
1.79041e-05
1.79508e-05
1.79637e-05
1.79399e-05
1.7929e-05
1.78422e-05
1.77577e-05
1.7679e-05
1.77424e-05
1.79749e-05
1.80005e-05
1.80179e-05
1.80123e-05
1.79539e-05
1.78998e-05
1.78709e-05
1.75553e-05
1.72418e-05
1.7768e-05
1.85147e-05
1.85211e-05
1.855e-05
1.85615e-05
1.85632e-05
1.85511e-05
1.85119e-05
1.84944e-05
1.84865e-05
1.84732e-05
1.85126e-05
1.85276e-05
1.85462e-05
1.85618e-05
1.85683e-05
1.85702e-05
1.85447e-05
1.84999e-05
1.85062e-05
1.84832e-05
1.85181e-05
1.85218e-05
1.85307e-05
1.85365e-05
1.8559e-05
1.85897e-05
1.85953e-05
1.85837e-05
1.85575e-05
1.85542e-05
1.852e-05
1.85205e-05
1.85235e-05
1.8529e-05
1.85336e-05
1.85395e-05
1.86078e-05
1.86214e-05
1.86131e-05
1.861e-05
1.85099e-05
1.85147e-05
1.85178e-05
1.85226e-05
1.85283e-05
1.85312e-05
1.85502e-05
1.85981e-05
1.86192e-05
1.86228e-05
1.84797e-05
1.84882e-05
1.84996e-05
1.85102e-05
1.85196e-05
1.85248e-05
1.85299e-05
1.85413e-05
1.85706e-05
1.85644e-05
1.84346e-05
1.84485e-05
1.84625e-05
1.84754e-05
1.84917e-05
1.85092e-05
1.85202e-05
1.85256e-05
1.85268e-05
1.85236e-05
1.84672e-05
1.8454e-05
1.84566e-05
1.84622e-05
1.84704e-05
1.84843e-05
1.84989e-05
1.85014e-05
1.85067e-05
1.85149e-05
1.84835e-05
1.84586e-05
1.8457e-05
1.84602e-05
1.84666e-05
1.8481e-05
1.84938e-05
1.85078e-05
1.85706e-05
1.8567e-05
1.85094e-05
1.84645e-05
1.84608e-05
1.84634e-05
1.84706e-05
1.84844e-05
1.84999e-05
1.85498e-05
1.85796e-05
1.85833e-05
1.85473e-05
1.85291e-05
1.85047e-05
1.85005e-05
1.84988e-05
1.85033e-05
1.85772e-05
1.87276e-05
1.88036e-05
1.88062e-05
1.85587e-05
1.85497e-05
1.85212e-05
1.85149e-05
1.85226e-05
1.86009e-05
1.87132e-05
1.87849e-05
1.88206e-05
1.88066e-05
1.85627e-05
1.86087e-05
1.86219e-05
1.86363e-05
1.8672e-05
1.87158e-05
1.87453e-05
1.87907e-05
1.88191e-05
1.88016e-05
1.85682e-05
1.85681e-05
1.86024e-05
1.86413e-05
1.86721e-05
1.86966e-05
1.87294e-05
1.87799e-05
1.88131e-05
1.88186e-05
1.86082e-05
1.86142e-05
1.86029e-05
1.86038e-05
1.86078e-05
1.8606e-05
1.86233e-05
1.8703e-05
1.87869e-05
1.8816e-05
1.85225e-05
1.85255e-05
1.85444e-05
1.85662e-05
1.85704e-05
1.85642e-05
1.85635e-05
1.85771e-05
1.86643e-05
1.8771e-05
1.8572e-05
1.85493e-05
1.85394e-05
1.85409e-05
1.85413e-05
1.85359e-05
1.85357e-05
1.85438e-05
1.85887e-05
1.8716e-05
1.86524e-05
1.86372e-05
1.85798e-05
1.85521e-05
1.85421e-05
1.85346e-05
1.85379e-05
1.85415e-05
1.85988e-05
1.87635e-05
1.86324e-05
1.86376e-05
1.85955e-05
1.85639e-05
1.85442e-05
1.85402e-05
1.8543e-05
1.85471e-05
1.87581e-05
1.88371e-05
1.86258e-05
1.85822e-05
1.85905e-05
1.85594e-05
1.8545e-05
1.85407e-05
1.85572e-05
1.87884e-05
1.88373e-05
1.8827e-05
1.88092e-05
1.88137e-05
1.88196e-05
1.87891e-05
1.87306e-05
1.87479e-05
1.88132e-05
1.88768e-05
1.88896e-05
1.88743e-05
1.8814e-05
1.88148e-05
1.8774e-05
1.86784e-05
1.86388e-05
1.86614e-05
1.87713e-05
1.8865e-05
1.88995e-05
1.88858e-05
1.87834e-05
1.87645e-05
1.87527e-05
1.87494e-05
1.87407e-05
1.87168e-05
1.87291e-05
1.87795e-05
1.8846e-05
1.88701e-05
1.8746e-05
1.87368e-05
1.87588e-05
1.88011e-05
1.88133e-05
1.88145e-05
1.88024e-05
1.87966e-05
1.88019e-05
1.88249e-05
1.87871e-05
1.87649e-05
1.87702e-05
1.88077e-05
1.88474e-05
1.8865e-05
1.88688e-05
1.88624e-05
1.88302e-05
1.88152e-05
1.88465e-05
1.88026e-05
1.87953e-05
1.88166e-05
1.88559e-05
1.88892e-05
1.8898e-05
1.88925e-05
1.88563e-05
1.88236e-05
1.8767e-05
1.88492e-05
1.88373e-05
1.88476e-05
1.88792e-05
1.89008e-05
1.8904e-05
1.88824e-05
1.88361e-05
1.88228e-05
1.87849e-05
1.88622e-05
1.88648e-05
1.88773e-05
1.89056e-05
1.89266e-05
1.89285e-05
1.89054e-05
1.88556e-05
1.88376e-05
1.87939e-05
1.88583e-05
1.88697e-05
1.88884e-05
1.89105e-05
1.89389e-05
1.89572e-05
1.89611e-05
1.89601e-05
1.89484e-05
1.87904e-05
1.8843e-05
1.88595e-05
1.88872e-05
1.89082e-05
1.89304e-05
1.89498e-05
1.89652e-05
1.89736e-05
1.89673e-05
1.57473e-05
1.57719e-05
1.57814e-05
1.57832e-05
1.57818e-05
1.57785e-05
1.57721e-05
1.57644e-05
1.57552e-05
1.57514e-05
1.57315e-05
1.57547e-05
1.5774e-05
1.57821e-05
1.57845e-05
1.57839e-05
1.57815e-05
1.57748e-05
1.57597e-05
1.57514e-05
1.57255e-05
1.57396e-05
1.57557e-05
1.57723e-05
1.57811e-05
1.57837e-05
1.57834e-05
1.57814e-05
1.5774e-05
1.57573e-05
1.57243e-05
1.5732e-05
1.57454e-05
1.57573e-05
1.57705e-05
1.57797e-05
1.57827e-05
1.57824e-05
1.57802e-05
1.57729e-05
1.5724e-05
1.57319e-05
1.574e-05
1.57515e-05
1.57607e-05
1.57706e-05
1.57787e-05
1.57817e-05
1.57812e-05
1.57785e-05
1.57251e-05
1.57344e-05
1.57425e-05
1.57519e-05
1.57614e-05
1.57681e-05
1.57747e-05
1.57798e-05
1.57811e-05
1.57801e-05
1.57279e-05
1.57392e-05
1.57512e-05
1.57605e-05
1.57678e-05