/*--------------------------------*- C++ -*----------------------------------*\
  =========                 |
  \\      /  F ield         | OpenFOAM: The Open Source CFD Toolbox
   \\    /   O peration     | Website:  https://openfoam.org
    \\  /    A nd           | Version:  9
     \\/     M anipulation  |
\*---------------------------------------------------------------------------*/
FoamFile
{
    format      ascii;
    class       volVectorField;
    location    "79";
    object      U_unif_dummy;
}
// * * * * * * * * * * * * * * * * * * * * * * * * * * * * * * * * * * * * * //

dimensions      [0 1 -1 0 0 0 0];

internalField   uniform (0 0.1 0);

boundaryField
{
    inlet
    {
        type            flowRateInletVelocity;
        massFlowRate    
        {
            type            constant;
            value           0.031424;
        }
        rho             thermo:rho.gas;
        extrapolateProfile 0;
        value           uniform (0 0.250059 0);
    }
    outlet
    {
        type            pressureInletOutletVelocity;
        phi             phi.gas;
        value           nonuniform List<vector> 
740
(
(0 -2.84652 0)
(0 -2.66377 0)
(0 -2.69533 0)
(0 -2.47329 0)
(0 -1.82061 0)
(0 -0.962948 0)
(0 -0.100894 0)
(0 -1.98599 0)
(0 -3.26108 0)
(0 -3.42052 0)
(0 -2.60855 0)
(0 -2.38642 0)
(0 -2.66743 0)
(0 -2.76808 0)
(0 -2.25643 0)
(0 -1.69013 0)
(0 -1.28184 0)
(0 -2.55041 0)
(0 -3.36596 0)
(0 -3.59391 0)
(0 -1.89453 0)
(0 -2.2015 0)
(0 -2.74865 0)
(0 -2.97878 0)
(0 -2.66849 0)
(0 -2.31466 0)
(0 -2.07444 0)
(0 -2.55603 0)
(0 -2.88604 0)
(0 -3.21319 0)
(0 -1.83277 0)
(0 -2.28086 0)
(0 -2.80006 0)
(0 -3.07082 0)
(0 -2.87863 0)
(0 -2.5951 0)
(0 -2.40431 0)
(0 -2.46032 0)
(0 -2.58997 0)
(0 -2.91309 0)
(0 -1.82703 0)
(0 -2.28229 0)
(0 -2.79216 0)
(0 -3.09073 0)
(0 -3.00439 0)
(0 -2.70885 0)
(0 -2.45645 0)
(0 -2.38962 0)
(0 -2.57537 0)
(0 -2.93064 0)
(0 -1.62106 0)
(0 -1.91916 0)
(0 -2.56897 0)
(0 -3.05807 0)
(0 -3.13266 0)
(0 -2.9149 0)
(0 -2.57894 0)
(0 -2.53664 0)
(0 -2.80836 0)
(0 -3.09418 0)
(0 -1.49049 0)
(0 -1.60727 0)
(0 -2.14163 0)
(0 -2.79268 0)
(0 -3.17315 0)
(0 -3.20956 0)
(0 -2.96161 0)
(0 -2.95537 0)
(0 -3.12435 0)
(0 -3.19998 0)
(0 -1.62717 0)
(0 -1.72036 0)
(0 -2.18171 0)
(0 -2.65335 0)
(0 -3.1283 0)
(0 -3.30922 0)
(0 -3.27564 0)
(0 -3.29537 0)
(0 -3.34709 0)
(0 -3.08832 0)
(0 -1.98941 0)
(0 -2.15433 0)
(0 -2.59344 0)
(0 -2.78064 0)
(0 -3.02855 0)
(0 -3.32057 0)
(0 -3.37708 0)
(0 -3.38455 0)
(0 -3.31909 0)
(0 -2.57677 0)
(0 -2.40983 0)
(0 -2.53387 0)
(0 -3.0091 0)
(0 -2.92603 0)
(0 -2.80672 0)
(0 -2.97962 0)
(0 -3.17027 0)
(0 -3.08827 0)
(0 -2.73674 0)
(0 -2.32358 0)
(0 -3.31567 0)
(0 -2.98491 0)
(0 -1.79738 0)
(0 -1.58334 0)
(0 -1.6047 0)
(0 -1.56059 0)
(0 -1.53881 0)
(0 -1.95505 0)
(0 -2.58156 0)
(0 -2.84001 0)
(0 -3.32668 0)
(0 -3.48286 0)
(0 -2.07505 0)
(0 -1.55899 0)
(0 -1.40252 0)
(0 -1.44083 0)
(0 -1.64546 0)
(0 -2.26277 0)
(0 -3.08466 0)
(0 -3.18594 0)
(0 -3.59751 0)
(0 -3.87512 0)
(0 -2.49791 0)
(0 -1.59994 0)
(0 -1.34552 0)
(0 -1.43998 0)
(0 -1.73398 0)
(0 -2.22225 0)
(0 -2.60509 0)
(0 -2.66785 0)
(0 -3.85229 0)
(0 -4.07696 0)
(0 -3.38807 0)
(0 -1.75844 0)
(0 -1.44792 0)
(0 -1.72282 0)
(0 -1.87218 0)
(0 -2.00714 0)
(0 -1.86112 0)
(0 -1.83572 0)
(0 -3.67375 0)
(0 -3.96475 0)
(0 -3.94092 0)
(0 -2.12895 0)
(0 -1.60968 0)
(0 -1.90136 0)
(0 -1.8747 0)
(0 -1.61089 0)
(0 -1.51381 0)
(0 -1.36518 0)
(0 -2.8245 0)
(0 -2.67699 0)
(0 -3.00564 0)
(0 -2.87479 0)
(0 -2.55752 0)
(0 -2.51993 0)
(0 -2.7321 0)
(0 -2.79891 0)
(0 -2.83262 0)
(0 -2.63204 0)
(0 -2.61339 0)
(0 -2.54433 0)
(0 -2.8087 0)
(0 -2.73025 0)
(0 -2.40012 0)
(0 -2.29981 0)
(0 -2.42569 0)
(0 -2.5231 0)
(0 -2.82031 0)
(0 -2.8281 0)
(0 -2.44866 0)
(0 -2.46917 0)
(0 -2.70447 0)
(0 -2.63872 0)
(0 -2.50503 0)
(0 -2.46333 0)
(0 -2.44977 0)
(0 -2.5078 0)
(0 -2.74339 0)
(0 -2.83391 0)
(0 -2.07407 0)
(0 -2.27465 0)
(0 -2.60117 0)
(0 -2.64312 0)
(0 -2.71122 0)
(0 -2.81059 0)
(0 -2.78232 0)
(0 -2.7055 0)
(0 -2.75531 0)
(0 -2.83773 0)
(0 -1.68293 0)
(0 -1.92601 0)
(0 -2.29494 0)
(0 -2.5571 0)
(0 -2.81254 0)
(0 -2.95992 0)
(0 -2.94293 0)
(0 -2.87222 0)
(0 -2.82902 0)
(0 -2.85805 0)
(0 -2.50828 0)
(0 -2.57184 0)
(0 -2.66143 0)
(0 -2.82183 0)
(0 -2.87236 0)
(0 -2.86441 0)
(0 -2.97954 0)
(0 -3.1462 0)
(0 -3.18988 0)
(0 -2.98806 0)
(0 -2.93003 0)
(0 -2.99469 0)
(0 -2.82248 0)
(0 -2.66524 0)
(0 -2.54102 0)
(0 -2.56595 0)
(0 -2.69021 0)
(0 -2.72543 0)
(0 -2.52825 0)
(0 -2.44765 0)
(0 -2.95826 0)
(0 -2.96577 0)
(0 -2.87479 0)
(0 -2.66994 0)
(0 -2.46703 0)
(0 -2.42962 0)
(0 -2.48916 0)
(0 -2.46693 0)
(0 -2.17981 0)
(0 -2.13801 0)
(0 -2.82153 0)
(0 -2.68452 0)
(0 -2.65478 0)
(0 -2.88764 0)
(0 -3.18223 0)
(0 -3.07076 0)
(0 -2.89261 0)
(0 -2.67317 0)
(0 -2.22461 0)
(0 -2.03763 0)
(0 -2.84561 0)
(0 -2.7406 0)
(0 -2.82535 0)
(0 -3.36701 0)
(0 -4.03557 0)
(0 -4.02075 0)
(0 -3.55311 0)
(0 -3.05693 0)
(0 -2.58314 0)
(0 -2.0457 0)
(0 -3.305 0)
(0 -3.02215 0)
(0.139433 -1.43882 -0.509237)
(0.315533 0.650102 -0.338863)
(0 -0.490044 0)
(0 -1.49513 0)
(0 -1.96502 0)
(0 -2.24154 0)
(0 -2.62765 0)
(0 -2.86365 0)
(0 -3.08246 0)
(0 -3.23321 0)
(0 -1.86026 0)
(0.373197 0.937905 -0.25797)
(0 -0.0879309 0)
(0 -1.44488 0)
(0 -2.07832 0)
(0 -2.16329 0)
(0 -2.73727 0)
(0 -2.98438 0)
(0 -2.82832 0)
(0 -3.10395 0)
(0 -1.63052 0)
(0.267748 1.2379 -0.24233)
(-0.0467193 0.379271 -0.182436)
(0 -1.23859 0)
(0 -2.40377 0)
(0 -2.77378 0)
(0 -3.56008 0)
(0 -3.67028 0)
(0 -2.64719 0)
(0 -2.57051 0)
(0 -0.853968 0)
(0.073795 1.37625 -0.187989)
(0.06882 0.918274 -0.200465)
(0 -0.562933 0)
(0 -2.10014 0)
(0 -3.54172 0)
(0 -4.42103 0)
(0 -3.93078 0)
(0 -2.369 0)
(0 -1.7647 0)
(0 0.164236 0)
(-0.136455 1.47981 -0.140598)
(0.0844656 1.40884 -0.224929)
(-0.397683 0.343907 -0.12533)
(0 -1.09994 0)
(0 -2.9327 0)
(0 -4.19848 0)
(0 -3.68252 0)
(0 -3.35262 0)
(0 -3.89268 0)
(0 -4.08316 0)
(0 -2.71978 0)
(0 -1.97677 0)
(0 -1.81189 0)
(0 -1.79214 0)
(0 -1.58647 0)
(0 -1.24472 0)
(0 -1.01745 0)
(0 -2.88602 0)
(0 -3.41357 0)
(0 -3.24919 0)
(0 -2.57626 0)
(0 -2.16064 0)
(0 -1.79068 0)
(0 -1.6081 0)
(0 -1.3751 0)
(0 -0.970692 0)
(0 -0.775614 0)
(0 -2.17593 0)
(0 -2.55354 0)
(0 -2.37375 0)
(0 -2.03559 0)
(0 -1.9208 0)
(0 -1.74692 0)
(0 -1.53396 0)
(0 -1.25044 0)
(0 -0.859569 0)
(0 -0.448155 0)
(0 -1.13928 0)
(0 -1.63079 0)
(0 -1.70872 0)
(0 -1.53335 0)
(0 -1.39383 0)
(0 -1.2628 0)
(0 -1.10701 0)
(0 -0.9359 0)
(0 -0.735347 0)
(0 -0.454208 0)
(0 0.128205 0)
(0 -0.6603 0)
(0 -1.03137 0)
(0 -0.975015 0)
(0 -0.817903 0)
(0 -0.623669 0)
(0 -0.42722 0)
(0 -0.312744 0)
(0 -0.259862 0)
(0 -0.196587 0)
(0 -1.27982 0)
(0 -1.56877 0)
(0 -1.9484 0)
(0 -2.36655 0)
(0 -2.74261 0)
(0 -2.98762 0)
(0 -3.0434 0)
(0 -2.99464 0)
(0 -2.91637 0)
(0 -2.86163 0)
(0 -0.89614 0)
(0 -1.22434 0)
(0 -1.64626 0)
(0 -2.10777 0)
(0 -2.55179 0)
(0 -2.88545 0)
(0 -3.01372 0)
(0 -2.99837 0)
(0 -2.95405 0)
(0 -2.89983 0)
(0 -0.576557 0)
(0 -0.910208 0)
(0 -1.36649 0)
(0 -1.83151 0)
(0 -2.27906 0)
(0 -2.64042 0)
(0 -2.84624 0)
(0 -2.86861 0)
(0 -2.86464 0)
(0 -2.86555 0)
(0 -0.371109 0)
(0 -0.610582 0)
(0 -1.05729 0)
(0 -1.53585 0)
(0 -1.92631 0)
(0 -2.2688 0)
(0 -2.50389 0)
(0 -2.58767 0)
(0 -2.60871 0)
(0 -2.71558 0)
(0 -0.182721 0)
(0 -0.411757 0)
(0 -0.813943 0)
(0 -1.26187 0)
(0 -1.55314 0)
(0 -1.77419 0)
(0 -2.00718 0)
(0 -2.1823 0)
(0 -2.23772 0)
(0 -2.44499 0)
(0 -2.86764 0)
(0 -2.93459 0)
(0 -3.14748 0)
(0 -3.65733 0)
(0 -4.32342 0)
(0 -4.6329 0)
(0 -4.07398 0)
(0 -3.34168 0)
(0 -2.80554 0)
(0 -2.15842 0)
(0 -2.90695 0)
(0 -3.00376 0)
(0 -3.30582 0)
(0 -3.8496 0)
(0 -4.57186 0)
(0 -5.02129 0)
(0 -4.54208 0)
(0 -3.51646 0)
(0 -2.86185 0)
(0 -2.26371 0)
(0 -2.94154 0)
(0 -3.10543 0)
(0 -3.4664 0)
(0 -4.05161 0)
(0 -4.85723 0)
(0 -5.38385 0)
(0 -4.90913 0)
(0 -3.62632 0)
(0 -2.82474 0)
(0 -2.30949 0)
(0 -2.92576 0)
(0 -3.17485 0)
(0 -3.58403 0)
(0 -4.20413 0)
(0 -4.97886 0)
(0 -5.7111 0)
(0 -5.10546 0)
(0 -3.68826 0)
(0 -2.69892 0)
(0 -2.12813 0)
(0 -2.80922 0)
(0 -3.17821 0)
(0 -3.66829 0)
(0 -4.33972 0)
(0 -4.97581 0)
(0 -5.43171 0)
(0 -4.70041 0)
(0 -3.28889 0)
(0 -2.29436 0)
(0 -1.70043 0)
(0 -2.00095 0)
(0 -1.21524 0)
(0 0.606409 0)
(-0.327862 1.84255 -0.246336)
(0.00879989 1.87156 -0.438048)
(-0.265052 1.14074 -0.438957)
(0 0.117673 0)
(0 -1.38299 0)
(0 -2.67543 0)
(0 -3.17694 0)
(0 -1.62129 0)
(0 -0.770783 0)
(0 0.74368 0)
(-0.518838 2.24784 -0.482123)
(-0.145035 2.47073 -0.812261)
(-0.229014 1.99508 -0.954101)
(-0.485331 1.22073 -0.535137)
(0 0.124539 0)
(0 -1.20605 0)
(0 -2.3852 0)
(0 -1.38328 0)
(0 -0.496565 0)
(0 0.685748 0)
(-0.736679 2.61559 -0.68734)
(-0.381346 3.21347 -1.16041)
(-0.294502 3.08729 -1.48782)
(-0.440478 2.50676 -1.27141)
(-0.493426 1.47488 -0.534561)
(0 0.0938294 0)
(0 -1.34348 0)
(0 -1.256 0)
(0 -0.389076 0)
(0 0.383752 0)
(-0.971808 2.75524 -0.690182)
(-0.663911 3.75691 -1.14564)
(-0.431908 4.08227 -1.61796)
(-0.478397 4.00212 -1.69394)
(-0.495037 3.09442 -1.22539)
(-0.332877 1.48613 -0.404667)
(0 -0.101116 0)
(0 -1.05174 0)
(0 -0.390923 0)
(0 -0.0706316 0)
(-1.15207 2.19246 -0.432756)
(-0.896941 3.58399 -0.643218)
(-0.572348 4.43996 -1.09686)
(-0.496195 5.04653 -1.46039)
(-0.508033 4.90293 -1.42211)
(-0.395572 3.30876 -0.941656)
(-0.148918 1.34576 -0.230155)
(0.0596913 1.63718 -0.192296)
(0.41623 0.477823 0.11272)
(0 -0.175694 0)
(0 -0.304788 0)
(0 -0.21969 0)
(0 0.0483355 0)
(0 0.304082 0)
(0 0.413959 0)
(0 0.388624 0)
(0 0.291482 0)
(0.0500323 3.76641 -0.34325)
(0.282614 2.13538 -0.129469)
(0.59304 1.03425 0.051168)
(0.850716 0.55507 0.125379)
(0 0.52659 0)
(1.11856 0.798798 -0.00572542)
(1.18742 1.07061 -0.175305)
(1.28403 1.17757 -0.445184)
(1.39369 1.08487 -0.738855)
(1.4523 0.853346 -1.01283)
(0.789529 6.31847 0.492412)
(0.59294 4.76094 0.0674047)
(0.598067 3.07346 0.0104193)
(0.79652 1.92983 0.089501)
(1.03633 1.56392 0.129978)
(1.24215 1.74849 0.0446268)
(1.3812 2.04013 -0.156274)
(1.47313 2.16286 -0.521299)
(1.5665 1.98611 -0.883749)
(1.61642 1.60722 -1.21244)
(2.41769 7.12005 2.12212)
(2.52286 6.93838 1.44619)
(2.17703 6.05685 0.795315)
(1.77711 4.57181 0.399763)
(1.65445 3.5725 0.204606)
(1.77379 3.40877 0.0258912)
(1.98362 3.61946 -0.291238)
(2.09769 3.66405 -0.801891)
(2.06313 3.34507 -1.22323)
(1.96048 2.81541 -1.57723)
(3.7476 6.2999 3.28518)
(4.30541 6.57854 2.66691)
(4.53879 6.58011 1.91525)
(4.49627 6.33973 1.15863)
(4.32945 5.93681 0.454048)
(4.23715 5.53851 -0.187674)
(4.27837 5.29818 -0.916323)
(4.20051 5.09757 -1.71912)
(3.8806 4.72861 -2.35773)
(3.44713 4.32155 -2.91884)
(5.37515 6.22273 4.62092)
(6.20221 6.30021 3.82164)
(6.8699 6.29485 2.87532)
(7.41713 6.14462 1.8312)
(7.83093 5.82539 0.675838)
(8.05765 5.43961 -0.57608)
(8.01894 5.2281 -1.89736)
(7.63884 5.24053 -3.16538)
(6.99453 5.06074 -4.28025)
(6.1367 4.82416 -5.24377)
(0 0.133914 0)
(0 -0.217005 0)
(0 -0.659959 0)
(0 -1.07321 0)
(0 -1.26544 0)
(0 -1.28626 0)
(0 -1.38291 0)
(0 -1.63561 0)
(0 -1.78516 0)
(0 -2.06793 0)
(1.43402 0.519009 -1.27959)
(1.32768 0.04421 -1.5058)
(0 -0.48897 0)
(0 -0.909868 0)
(0 -1.06084 0)
(0 -0.904137 0)
(0 -0.757615 0)
(0 -0.97276 0)
(0 -1.27157 0)
(0 -1.63948 0)
(1.5856 1.10178 -1.55724)
(1.49554 0.526116 -1.90949)
(1.27468 -0.116626 -2.24374)
(0 -0.619089 0)
(0 -0.80885 0)
(0 -0.547308 0)
(0 -0.21556 0)
(-1.94199 -0.313713 -1.66327)
(0 -0.71458 0)
(0 -1.16367 0)
(1.82847 2.16321 -1.97937)
(1.66596 1.44211 -2.38989)
(1.39331 0.630377 -2.78787)
(0.994276 -0.0423586 -3.16787)
(0 -0.317086 0)
(0 -0.0348807 0)
(-1.46745 0.226666 -3.06562)
(-2.09708 0.0966126 -2.29981)
(-2.06863 -0.217473 -1.65836)
(0 -0.63291 0)
(2.97057 3.69462 -3.45262)
(2.45845 2.82592 -3.87639)
(1.8768 1.91948 -4.23847)
(1.21719 1.20375 -4.62088)
(0.436777 0.907513 -4.99088)
(-0.505734 0.754858 -4.98435)
(-1.49717 0.484818 -4.18641)
(-2.02654 0.212727 -2.83244)
(-1.80964 0.172761 -1.64338)
(-1.21725 0.103516 -0.895707)
(5.07077 4.38858 -5.94828)
(3.92126 3.62902 -6.3669)
(2.78985 2.69732 -6.64919)
(1.66724 1.90465 -6.8413)
(0.544526 1.32273 -6.85842)
(-0.546084 0.810306 -6.54975)
(-1.47704 0.313358 -5.49488)
(-1.76833 0.258762 -3.54125)
(-1.13116 0.828975 -1.36662)
(-0.0686405 1.16752 0.0929703)
(0 -2.55317 0)
(0 -2.93418 0)
(0 -3.49731 0)
(0 -4.19515 0)
(0 -4.58008 0)
(0 -4.60028 0)
(0 -3.59436 0)
(0 -2.46145 0)
(0 -1.60949 0)
(0 -1.02997 0)
(0 -2.13373 0)
(0 -2.34326 0)
(0 -2.67271 0)
(0 -3.20175 0)
(0 -3.50681 0)
(0 -3.06223 0)
(0 -2.14471 0)
(0 -1.35622 0)
(0 -0.618364 0)
(0 -0.140055 0)
(0 -1.47578 0)
(0 -1.21098 0)
(0 -0.885727 0)
(0 -1.31768 0)
(0 -1.87597 0)
(0 -1.33571 0)
(0 -0.557215 0)
(0.179571 0.117264 -0.0847333)
(0.221691 0.753131 -0.317396)
(0.0786145 1.00055 -0.445701)
(0 -0.550675 0)
(-0.811074 0.345151 0.0357419)
(-0.644767 1.15965 0.257519)
(-0.52473 0.519228 0.264029)
(-0.364254 -0.00661181 0.22264)
(-0.102562 0.496606 0.123797)
(0.260379 1.2121 -0.0531273)
(0.557713 1.8901 -0.342039)
(0.630017 2.38466 -0.64433)
(0.447508 2.47715 -0.786792)
(-0.662531 0.559358 -0.326546)
(-0.105343 1.62904 0.227568)
(0.43025 2.55734 0.542039)
(0.769799 2.32279 0.511444)
(0.985297 2.26319 0.26761)
(1.17259 2.63037 -0.0900681)
(1.34515 3.23832 -0.457297)
(1.41809 3.86825 -0.8027)
(1.26627 4.218 -1.08024)
(0.912106 4.18558 -1.14129)
(0.747489 1.36525 0.68756)
(1.36137 1.84945 0.893525)
(2.07564 2.63354 0.968152)
(2.97887 3.72796 0.83708)
(3.75881 5.11133 0.359554)
(3.98793 6.51015 -0.336595)
(3.5838 7.54153 -0.9462)
(2.78468 8.23233 -1.26543)
(1.8426 8.5736 -1.26692)
(0.971809 8.53711 -0.97666)
(0 -0.658908 0)
(0 -0.386288 0)
(0 -0.430348 0)
(-1.213 0.947508 -0.0543925)
(-0.990692 2.27229 0.100181)
(-0.604788 3.39464 -0.0666162)
(-0.412813 4.87751 -0.496257)
(-0.390889 5.92521 -0.849316)
(-0.372847 5.41431 -0.909405)
(-0.262046 3.22734 -0.626769)
(0 0.0236805 0)
(0 -0.0194242 0)
(0 -0.422349 0)
(0 0.119811 0)
(-0.962305 1.09949 0.731894)
(-0.537715 2.1266 0.854963)
(-0.210295 3.66494 0.7078)
(-0.056841 5.63397 0.379206)
(-0.0439555 6.57453 -0.00346922)
(-0.0454629 5.5867 -0.291961)
(-0.188858 0.966173 -0.406436)
(-0.521963 0.898383 -0.228489)
(0 0.406612 0)
(-1.0567 0.692801 0.616878)
(-0.877952 1.25063 1.22704)
(-0.437619 1.77897 1.57115)
(0.0144363 2.77228 1.63504)
(0.388146 4.39876 1.59052)
(0.690628 6.42473 1.47577)
(0.871929 7.01491 1.10471)
(0.0716951 2.308 -0.667369)
(-0.368856 2.22312 -0.31993)
(-0.731901 2.13284 0.239268)
(-0.944907 2.4551 0.98875)
(-0.777659 2.63401 1.76833)
(-0.311824 2.51647 2.27616)
(0.259763 2.80683 2.49345)
(0.83651 3.7603 2.56417)
(1.38408 5.13308 2.59241)
(1.94563 6.50143 2.50164)
(0.411364 4.03765 -0.92447)
(-0.166284 3.98818 -0.380201)
(-0.63597 4.24794 0.479834)
(-0.840269 4.36973 1.50089)
(-0.64678 3.94457 2.46179)
(-0.118982 3.48404 3.14261)
(0.593126 3.57132 3.5245)
(1.38184 4.19266 3.69502)
(2.17476 4.97426 3.73582)
(2.98172 5.69297 3.63252)
(0.246895 8.52014 -0.450346)
(-0.376874 8.2565 0.390434)
(-0.784195 7.69784 1.53052)
(-0.836765 6.94006 2.78639)
(-0.47411 6.07848 3.97923)
(0.255711 5.48914 4.94176)
(1.2402 5.3957 5.54445)
(2.32659 5.639 5.73171)
(3.39432 5.91309 5.58895)
(4.41862 6.08417 5.2121)
)
;
    }
    walls
    {
        type            slip;
    }
}


// ************************************************************************* //
