/*--------------------------------*- C++ -*----------------------------------*\
  =========                 |
  \\      /  F ield         | OpenFOAM: The Open Source CFD Toolbox
   \\    /   O peration     | Website:  https://openfoam.org
    \\  /    A nd           | Version:  9
     \\/     M anipulation  |
\*---------------------------------------------------------------------------*/
FoamFile
{
    format      ascii;
    class       volScalarField;
    location    "1";
    object      alpha.gas;
}
// * * * * * * * * * * * * * * * * * * * * * * * * * * * * * * * * * * * * * //

dimensions      [0 0 0 0 0 0 0];

internalField   nonuniform List<scalar> 
137980
(
0.319227
0.2841
0.27341
0.271606
0.263548
0.259513
0.267733
0.285915
0.313962
0.298473
0.278542
0.27144
0.260322
0.248757
0.239072
0.23698
0.246681
0.266203
0.287458
0.297048
0.287896
0.271305
0.253627
0.237392
0.227476
0.228769
0.241259
0.262098
0.280781
0.290561
0.32507
0.29453
0.25974
0.235776
0.22503
0.22638
0.239041
0.259748
0.280553
0.295628
0.358359
0.312229
0.266708
0.240015
0.228569
0.228213
0.238964
0.261146
0.289029
0.312335
0.36568
0.308269
0.266766
0.247697
0.239089
0.236134
0.242732
0.266428
0.294919
0.309598
0.343093
0.29284
0.267929
0.259875
0.256594
0.251445
0.250987
0.261392
0.272201
0.282111
0.315156
0.281724
0.272909
0.28212
0.288704
0.280734
0.268978
0.264969
0.266712
0.283508
0.316797
0.281143
0.282815
0.315444
0.337228
0.328389
0.308146
0.288535
0.284379
0.345217
0.3192
0.293134
0.297923
0.353721
0.394071
0.383034
0.349071
0.311293
0.317533
0.338582
0.651693
0.623481
0.601865
0.592066
0.60364
0.593812
0.587032
0.582325
0.56593
0.590758
0.603251
0.614085
0.606926
0.587367
0.574632
0.557013
0.54043
0.531148
0.531887
0.585268
0.584114
0.610367
0.595798
0.573067
0.553354
0.537328
0.529465
0.528998
0.541606
0.5662
0.636191
0.610238
0.586384
0.564365
0.54438
0.532793
0.530295
0.537473
0.552191
0.565308
0.671419
0.617422
0.585245
0.567171
0.548379
0.539102
0.53934
0.54899
0.560351
0.570188
0.621543
0.59158
0.583371
0.573172
0.560817
0.556273
0.55814
0.56489
0.575714
0.582783
0.557013
0.572612
0.588482
0.58384
0.581074
0.583779
0.586121
0.582658
0.585307
0.598485
0.562504
0.586674
0.598443
0.597007
0.602971
0.605674
0.613779
0.605913
0.60656
0.625293
0.606257
0.598726
0.592293
0.600896
0.624309
0.630111
0.619885
0.619335
0.622965
0.645657
0.62771
0.607801
0.589787
0.610809
0.658181
0.665974
0.628955
0.604618
0.628906
0.647013
0.854483
0.859585
0.856817
0.85462
0.853878
0.852567
0.851479
0.84673
0.840069
0.836089
0.859169
0.863672
0.862716
0.861257
0.860027
0.856279
0.850373
0.843996
0.837729
0.832502
0.854106
0.859516
0.860161
0.860246
0.859137
0.855226
0.850905
0.846096
0.840959
0.834245
0.850987
0.857315
0.858711
0.859802
0.858848
0.856274
0.853976
0.850839
0.846918
0.838875
0.848547
0.856442
0.858199
0.861071
0.860563
0.859905
0.859154
0.856556
0.853664
0.845771
0.843005
0.855712
0.860146
0.863349
0.864182
0.865057
0.865286
0.862776
0.858056
0.847909
0.838723
0.854064
0.864711
0.866382
0.8684
0.870911
0.871849
0.868501
0.860456
0.850811
0.838461
0.851506
0.861448
0.865858
0.871362
0.874793
0.876731
0.87327
0.86398
0.854876
0.839601
0.846258
0.851281
0.857416
0.865283
0.871928
0.874696
0.871825
0.864834
0.857973
0.84138
0.840369
0.840795
0.84355
0.848664
0.855215
0.86122
0.863821
0.860065
0.857212
0.912021
0.912212
0.912284
0.912942
0.914125
0.915644
0.917861
0.918106
0.915943
0.914288
0.912782
0.913497
0.914079
0.915386
0.916878
0.919583
0.920343
0.919064
0.917056
0.915212
0.913858
0.915117
0.916777
0.919493
0.92338
0.923207
0.921912
0.920391
0.918565
0.916906
0.91529
0.917444
0.920077
0.922606
0.924212
0.923836
0.923133
0.921894
0.92031
0.918887
0.915367
0.918587
0.921396
0.922801
0.923581
0.923977
0.924092
0.923323
0.921964
0.920139
0.911607
0.914092
0.917071
0.919681
0.921808
0.923448
0.924789
0.924147
0.922439
0.918749
0.908265
0.910392
0.913196
0.916253
0.919414
0.922458
0.925056
0.923259
0.91945
0.915931
0.905334
0.9072
0.90981
0.913138
0.916999
0.921091
0.923679
0.920415
0.916609
0.913624
0.902797
0.904334
0.906876
0.910515
0.914786
0.919655
0.921333
0.917478
0.91425
0.912421
0.900686
0.901993
0.904901
0.908623
0.912845
0.91768
0.917221
0.914547
0.91295
0.911919
0.956141
0.955967
0.956082
0.956408
0.956952
0.957624
0.957759
0.957671
0.95754
0.956626
0.955483
0.955715
0.956086
0.95656
0.957117
0.957469
0.957445
0.957421
0.957353
0.957219
0.954892
0.955474
0.956085
0.956712
0.957236
0.957279
0.957297
0.957363
0.957535
0.957863
0.954393
0.955203
0.955991
0.956759
0.956825
0.956949
0.957189
0.957533
0.957927
0.958442
0.953985
0.954694
0.955291
0.955469
0.955838
0.95642
0.957133
0.957857
0.958334
0.95886
0.952513
0.952925
0.953444
0.954128
0.955014
0.956057
0.957193
0.958208
0.958323
0.958489
0.950837
0.951338
0.95211
0.953153
0.954418
0.955835
0.957368
0.957999
0.957648
0.957701
0.949488
0.950203
0.951301
0.952594
0.954047
0.955738
0.957614
0.957276
0.956913
0.956899
0.948934
0.949812
0.950941
0.952379
0.953861
0.956009
0.956726
0.956328
0.956189
0.956169
0.949137
0.949735
0.950764
0.952378
0.954367
0.956274
0.955997
0.955511
0.955552
0.955585
0.979389
0.979518
0.979727
0.979969
0.980161
0.980086
0.979878
0.979657
0.979412
0.978905
0.978677
0.978811
0.979051
0.979311
0.979442
0.979354
0.979235
0.979221
0.979301
0.979472
0.978
0.97815
0.978418
0.978695
0.978809
0.978805
0.978842
0.979
0.979276
0.979672
0.977347
0.977489
0.977749
0.978032
0.978224
0.97839
0.978611
0.978937
0.979355
0.979875
0.976655
0.976785
0.977042
0.977359
0.977696
0.978071
0.978513
0.978968
0.979448
0.979995
0.97589
0.976033
0.97632
0.976734
0.977266
0.977895
0.978524
0.979154
0.979514
0.979911
0.975258
0.975418
0.975783
0.976331
0.977041
0.977871
0.978822
0.979363
0.979506
0.979679
0.975213
0.975357
0.975682
0.976215
0.976985
0.978046
0.979286
0.979529
0.979169
0.979227
0.975605
0.975765
0.976156
0.976834
0.977818
0.979022
0.979797
0.979175
0.978704
0.978781
0.976212
0.976529
0.976999
0.977827
0.979332
0.979697
0.979181
0.97872
0.978371
0.978452
0.990688
0.990711
0.990759
0.990853
0.990982
0.991074
0.991106
0.991097
0.991014
0.990876
0.990359
0.990381
0.990423
0.990497
0.99057
0.990635
0.990692
0.990763
0.990871
0.991055
0.990062
0.990086
0.990132
0.990187
0.990241
0.990305
0.990399
0.990543
0.990752
0.991038
0.98965
0.989721
0.989809
0.989889
0.98997
0.990071
0.990216
0.990417
0.990679
0.991013
0.989235
0.989323
0.989457
0.989597
0.989745
0.989911
0.990117
0.990363
0.990649
0.990997
0.988853
0.988943
0.989115
0.989332
0.989575
0.989831
0.990085
0.990352
0.990643
0.990975
0.988541
0.98864
0.988857
0.989167
0.989533
0.989927
0.990341
0.990559
0.990732
0.990925
0.988477
0.988582
0.98881
0.989158
0.989616
0.99016
0.990735
0.99076
0.990777
0.990823
0.988626
0.988752
0.989045
0.989499
0.990078
0.990724
0.991078
0.990853
0.990583
0.990602
0.98897
0.989201
0.989593
0.990119
0.99077
0.991517
0.991379
0.990865
0.990385
0.990425
0.996003
0.996036
0.996166
0.996218
0.996253
0.996305
0.996366
0.996406
0.996417
0.996401
0.996038
0.995955
0.995979
0.996009
0.996042
0.996094
0.99617
0.99624
0.996313
0.996426
0.996054
0.995898
0.995818
0.995836
0.995876
0.995936
0.996022
0.996113
0.996214
0.996358
0.995973
0.99583
0.995703
0.995717
0.995757
0.995826
0.995924
0.996026
0.996138
0.996297
0.995803
0.995693
0.995611
0.995629
0.995678
0.995765
0.995871
0.995976
0.99609
0.996253
0.995445
0.995499
0.995533
0.995582
0.995658
0.995751
0.995852
0.995952
0.996068
0.996229
0.995175
0.995266
0.99542
0.995571
0.995698
0.99583
0.995964
0.996053
0.996123
0.996222
0.995186
0.995269
0.995422
0.995592
0.995767
0.995946
0.996127
0.996196
0.996207
0.996229
0.995243
0.995326
0.995477
0.995673
0.995892
0.996119
0.996347
0.996363
0.996318
0.996251
0.995308
0.995435
0.995615
0.995843
0.996103
0.996374
0.996608
0.996566
0.996442
0.996274
0.998556
0.998591
0.998617
0.998637
0.998657
0.998674
0.998686
0.998693
0.998698
0.998711
0.998562
0.998537
0.998542
0.998545
0.998565
0.99859
0.998614
0.998637
0.998661
0.998708
0.998571
0.998504
0.998475
0.998469
0.998491
0.998527
0.998562
0.998595
0.99863
0.99869
0.998565
0.998477
0.99842
0.998408
0.99844
0.998488
0.998536
0.99857
0.998608
0.998678
0.998515
0.998428
0.998376
0.998363
0.998413
0.998472
0.998526
0.998557
0.998594
0.99867
0.998445
0.998375
0.998343
0.99834
0.998404
0.998468
0.998525
0.998554
0.998589
0.998665
0.998336
0.998322
0.998314
0.998336
0.998412
0.998494
0.998569
0.99861
0.998631
0.998669
0.998236
0.998265
0.998314
0.998361
0.998432
0.998535
0.998623
0.998666
0.998682
0.998704
0.998223
0.998267
0.998328
0.998399
0.998484
0.99859
0.998698
0.998726
0.998731
0.998736
0.998231
0.998285
0.998364
0.99846
0.998566
0.998678
0.998784
0.998792
0.998773
0.998733
0.999575
0.999572
0.999569
0.999576
0.999584
0.999585
0.999593
0.9996
0.999608
0.999611
0.999591
0.999571
0.999551
0.999553
0.999559
0.999562
0.999569
0.999581
0.999594
0.999604
0.9996
0.999567
0.999535
0.999536
0.999541
0.999545
0.999555
0.999574
0.999587
0.999603
0.999593
0.999558
0.999523
0.999525
0.999528
0.999534
0.999545
0.99957
0.999583
0.999601
0.999577
0.999541
0.999512
0.999515
0.999519
0.999528
0.999542
0.999566
0.999582
0.999601
0.999549
0.999514
0.999506
0.99951
0.999516
0.999527
0.999543
0.999567
0.999589
0.999605
0.999508
0.999478
0.999486
0.999501
0.999516
0.999532
0.99955
0.99957
0.999592
0.99961
0.999448
0.999455
0.99947
0.999491
0.999516
0.999541
0.999565
0.99959
0.999605
0.999614
0.999412
0.999424
0.99945
0.999486
0.999523
0.999557
0.999586
0.999608
0.999613
0.999615
0.999408
0.999431
0.999462
0.999499
0.999541
0.999582
0.99961
0.999622
0.99962
0.999617
0.999897
0.999898
0.999893
0.99989
0.999891
0.999894
0.999893
0.999895
0.999895
0.999895
0.999905
0.999896
0.999888
0.999885
0.999886
0.99989
0.99989
0.99989
0.999892
0.999895
0.999903
0.999894
0.999885
0.999883
0.999883
0.999886
0.999887
0.999885
0.99989
0.999895
0.999898
0.999888
0.999881
0.99988
0.999881
0.999883
0.999885
0.999883
0.999888
0.999895
0.999893
0.999883
0.999876
0.999876
0.999878
0.999881
0.999883
0.999883
0.999887
0.999895
0.999886
0.999876
0.99987
0.999871
0.999874
0.999879
0.999882
0.999883
0.999885
0.999894
0.999872
0.999861
0.999863
0.999865
0.99987
0.999876
0.999881
0.999884
0.999886
0.999891
0.999856
0.99985
0.999852
0.999857
0.999865
0.999874
0.999881
0.999885
0.999888
0.999891
0.99984
0.999842
0.999847
0.999854
0.999864
0.999875
0.999884
0.999889
0.99989
0.999892
0.999833
0.999843
0.99985
0.99986
0.999872
0.999884
0.999892
0.999894
0.999894
0.999893
0.999977
0.999976
0.999975
0.999975
0.999974
0.999974
0.999974
0.999973
0.999973
0.999974
0.999979
0.999976
0.999975
0.999974
0.999973
0.999974
0.999974
0.999972
0.999972
0.999974
0.999978
0.999976
0.999973
0.999972
0.999973
0.999974
0.999974
0.999972
0.999972
0.999974
0.999977
0.999974
0.999972
0.999971
0.999973
0.999973
0.999973
0.999972
0.999972
0.999973
0.999975
0.999972
0.99997
0.999971
0.999972
0.999973
0.999973
0.999972
0.999971
0.999973
0.999972
0.999969
0.999969
0.99997
0.999971
0.999972
0.999973
0.999972
0.999971
0.999972
0.99997
0.999968
0.999968
0.999969
0.99997
0.999971
0.999973
0.999972
0.999972
0.999973
0.999968
0.999967
0.999967
0.999968
0.999969
0.999971
0.999973
0.999973
0.999973
0.999974
0.999964
0.999965
0.999966
0.999967
0.999969
0.999972
0.999974
0.999974
0.999974
0.999975
0.999961
0.999964
0.999967
0.99997
0.999972
0.999974
0.999976
0.999976
0.999975
0.999975
0.999994
0.999994
0.999994
0.999994
0.999994
0.999995
0.999995
0.999994
0.999994
0.999994
0.999994
0.999994
0.999994
0.999994
0.999994
0.999994
0.999994
0.999994
0.999994
0.999994
0.999995
0.999994
0.999994
0.999994
0.999994
0.999994
0.999994
0.999994
0.999994
0.999994
0.999994
0.999994
0.999994
0.999994
0.999994
0.999994
0.999994
0.999994
0.999994
0.999994
0.999994
0.999994
0.999994
0.999994
0.999994
0.999994
0.999994
0.999994
0.999994
0.999995
0.999994
0.999994
0.999994
0.999994
0.999994
0.999994
0.999994
0.999994
0.999995
0.999995
0.999994
0.999993
0.999993
0.999993
0.999994
0.999994
0.999994
0.999994
0.999994
0.999995
0.999993
0.999993
0.999993
0.999993
0.999993
0.999994
0.999994
0.999994
0.999994
0.999994
0.999993
0.999993
0.999993
0.999993
0.999993
0.999994
0.999994
0.999994
0.999994
0.999994
0.999992
0.999992
0.999993
0.999993
0.999994
0.999994
0.999994
0.999994
0.999994
0.999994
0.999999
0.999999
0.999999
0.999999
0.999999
0.999999
0.999999
0.999999
0.999999
0.999999
0.999999
0.999999
0.999999
0.999999
0.999999
0.999999
0.999999
0.999999
0.999999
0.999999
0.999999
0.999999
0.999999
0.999999
0.999999
0.999999
0.999999
0.999999
0.999999
0.999999
0.999999
0.999999
0.999999
0.999999
0.999999
0.999999
0.999999
0.999999
0.999999
0.999999
0.999999
0.999999
0.999999
0.999999
0.999999
0.999999
0.999999
0.999999
0.999999
0.999999
0.999999
0.999999
0.999999
0.999999
0.999999
0.999999
0.999999
0.999999
0.999999
0.999999
0.999999
0.999999
0.999999
0.999999
0.999999
0.999999
0.999999
0.999999
0.999999
0.999999
0.999999
0.999998
0.999998
0.999999
0.999999
0.999999
0.999999
0.999999
0.999999
0.999999
0.999998
0.999998
0.999998
0.999999
0.999999
0.999999
0.999999
0.999999
0.999999
0.999999
0.999998
0.999998
0.999998
0.999999
0.999999
0.999999
0.999999
0.999999
0.999999
0.999999
1
1
1
1
1
1
1
1
1
1
1
1
1
1
1
1
1
1
1
1
1
1
1
1
1
1
1
1
1
1
1
1
1
1
1
1
1
1
1
1
1
1
1
1
1
1
1
1
1
1
1
1
1
1
1
1
1
1
1
1
1
1
1
1
1
1
1
1
1
1
1
1
1
1
1
1
1
1
1
1
1
1
1
1
1
1
1
1
1
1
1
1
1
1
1
1
1
1
1
1
1
1
1
1
1
1
1
1
1
1
1
1
1
1
1
1
1
1
1
1
1
1
1
1
1
1
1
1
1
1
1
1
1
1
1
1
1
1
1
1
1
1
1
1
1
1
1
1
1
1
1
1
1
1
1
1
1
1
1
1
1
1
1
1
1
1
1
1
1
1
1
1
1
1
1
1
1
1
1
1
1
1
1
1
1
1
1
1
1
1
1
1
1
1
1
1
1
1
1
1
1
1
1
1
1
1
1
1
1
1
1
1
1
1
1
1
1
1
1
1
1
1
1
1
1
1
1
1
1
1
1
1
1
1
1
1
1
1
1
1
1
1
1
1
1
1
1
1
1
1
1
1
1
1
1
1
1
1
1
1
1
1
1
1
1
1
1
1
1
1
1
1
1
1
1
1
1
1
1
1
1
1
1
1
1
1
1
1
1
1
1
1
1
1
1
1
1
1
1
1
1
1
1
1
1
1
1
1
1
1
1
1
1
1
1
1
1
1
1
1
1
1
1
1
1
1
1
1
1
1
1
1
1
1
1
1
1
1
1
1
1
1
1
1
1
1
1
1
1
1
1
1
1
1
1
1
1
1
1
1
1
1
1
1
1
1
1
1
1
1
1
1
1
1
1
1
1
1
1
1
1
1
1
1
1
1
1
1
1
1
1
1
1
1
1
1
1
1
1
1
1
1
1
1
1
1
1
1
1
1
1
1
1
1
1
1
1
1
1
1
1
1
1
1
1
1
1
1
1
1
1
1
1
1
1
1
1
1
1
1
1
1
1
1
1
1
1
1
1
1
1
1
1
1
1
1
1
1
1
1
1
1
1
1
1
1
1
1
1
1
1
1
1
1
1
1
1
1
1
1
1
1
1
1
1
1
1
1
1
1
1
1
1
1
1
1
1
1
1
1
1
1
1
1
1
1
1
1
1
1
1
1
1
1
1
1
1
1
1
1
1
1
1
1
1
1
1
1
1
1
1
1
1
1
1
1
1
1
1
1
1
1
1
1
1
1
1
1
1
1
1
1
1
1
1
1
1
1
1
1
1
1
1
1
1
1
1
1
1
1
1
1
1
1
1
1
1
1
1
1
1
1
1
1
1
1
1
1
1
1
1
1
1
1
1
1
1
1
1
1
1
1
1
1
1
1
1
1
1
1
1
1
1
1
1
1
1
1
1
1
1
1
1
1
1
1
1
1
1
1
1
1
1
1
1
1
1
1
1
1
1
1
1
1
1
1
1
1
1
1
1
1
1
1
1
1
1
1
1
1
1
1
1
1
1
1
1
1
1
1
1
1
1
1
1
1
1
1
1
1
1
1
1
1
1
1
1
1
1
1
1
1
1
1
1
1
1
1
1
1
1
1
1
1
1
1
1
1
1
1
1
1
1
1
1
1
1
1
1
1
1
1
1
1
1
1
1
1
1
1
1
1
1
1
1
1
1
1
1
1
1
1
1
1
1
1
1
1
1
1
1
1
1
1
1
1
1
1
1
1
1
1
1
1
1
1
1
1
1
1
1
1
1
1
1
1
1
1
1
1
1
1
1
1
1
1
1
1
1
1
1
1
1
1
1
1
1
1
1
1
1
1
1
1
1
1
1
1
1
1
1
1
1
1
1
1
1
1
1
1
1
1
1
1
1
1
1
1
1
1
1
1
1
1
1
1
1
1
1
1
1
1
1
1
1
1
1
1
1
1
1
1
1
1
1
1
1
1
1
1
1
1
1
1
1
1
1
1
1
1
1
1
1
1
1
1
1
1
1
1
1
1
1
1
1
1
1
1
1
1
1
1
1
1
1
1
1
1
1
1
1
1
1
1
1
1
1
1
1
1
1
1
1
1
1
1
1
1
1
1
1
1
1
1
1
1
1
1
1
1
1
1
1
1
1
1
1
1
1
1
1
1
1
1
1
1
1
1
1
1
1
1
1
1
1
1
1
1
1
1
1
1
1
1
1
1
1
1
1
1
1
1
1
1
1
1
1
1
1
1
1
1
1
1
1
1
1
1
1
1
1
1
1
1
1
1
1
1
1
1
0.00692986
0.00683538
0.00688231
0.00696444
0.00692382
0.00692395
0.00696471
0.00688254
0.00683559
0.00693007
0.00683542
0.00678722
0.00680007
0.00683196
0.00681467
0.0068147
0.00683207
0.00680019
0.00678718
0.00683532
0.00688242
0.00680007
0.00677278
0.00676322
0.00674839
0.00674845
0.00676317
0.00677259
0.00680002
0.00688235
0.00696458
0.00683194
0.00676317
0.00672749
0.00670813
0.00670776
0.00672712
0.006763
0.00683211
0.00696459
0.00692383
0.00681455
0.00674832
0.00670775
0.00668558
0.00668556
0.0067077
0.00674815
0.00681474
0.00692406
0.00692389
0.00681451
0.00674796
0.00670763
0.00668558
0.00668561
0.00670774
0.00674821
0.00681495
0.00692449
0.00696446
0.00683203
0.00676303
0.00672714
0.00670775
0.00670783
0.00672735
0.00676363
0.00683308
0.00696531
0.00688235
0.00680016
0.0067728
0.00676325
0.00674839
0.00674877
0.00676398
0.00677405
0.00680128
0.00688275
0.00683542
0.0067873
0.00680034
0.00683279
0.00681564
0.00681598
0.00683352
0.00680132
0.00678794
0.00683565
0.00693015
0.00683563
0.00688287
0.00696545
0.00692536
0.00692527
0.00696548
0.00688281
0.00683568
0.00693048
0.00675699
0.0066896
0.00667415
0.00668107
0.00667138
0.00667142
0.00668115
0.00667422
0.00668972
0.0067571
0.00668959
0.00666357
0.00665215
0.00665259
0.00664584
0.00664584
0.00665262
0.00665219
0.00666337
0.00668895
0.00667413
0.00665213
0.00663595
0.00662765
0.00662034
0.00662034
0.00662748
0.0066353
0.00665143
0.00667326
0.00668105
0.00665253
0.00662761
0.00661062
0.00660035
0.00659969
0.00660977
0.00662667
0.00665166
0.00668015
0.00667131
0.00664568
0.00662019
0.00659971
0.00658779
0.00658764
0.00659933
0.00661931
0.0066449
0.00667046
0.00667127
0.0066452
0.00661936
0.00659933
0.00658762
0.00658763
0.00659935
0.00661934
0.0066449
0.00667026
0.00668017
0.00665163
0.00662665
0.00660958
0.00659936
0.00659936
0.00660956
0.00662638
0.00665107
0.00667794
0.00667325
0.00665133
0.00663508
0.0066267
0.00661932
0.00661881
0.00662595
0.00663285
0.00664927
0.0066712
0.00668879
0.00666278
0.00665132
0.00665128
0.00664434
0.00664286
0.00664972
0.00664931
0.00666061
0.00668664
0.00675624
0.00668829
0.00667269
0.00667808
0.0066682
0.00666839
0.00667809
0.00667125
0.00668666
0.00675438
0.00654203
0.00651012
0.00649743
0.00649032
0.00648633
0.00648633
0.00649034
0.00649745
0.00651017
0.00654206
0.00651011
0.00649919
0.00649136
0.00648628
0.00648408
0.00648407
0.00648628
0.00649132
0.00649898
0.0065095
0.00649739
0.00649133
0.00648423
0.00647947
0.00647648
0.00647645
0.00647929
0.00648357
0.00649058
0.0064965
0.00649027
0.00648622
0.00647944
0.006473
0.00646861
0.00646806
0.00647224
0.00647847
0.00648525
0.00648935
0.00648624
0.00648393
0.00647632
0.00646807
0.00646287
0.00646274
0.00646773
0.00647544
0.00648303
0.00648532
0.00648613
0.00648339
0.00647557
0.00646774
0.00646272
0.00646272
0.00646773
0.00647545
0.006483
0.00648521
0.0064894
0.00648525
0.00647844
0.00647204
0.00646773
0.00646773
0.00647203
0.00647835
0.00648506
0.00648935
0.00649646
0.0064904
0.00648327
0.00647844
0.00647542
0.00647535
0.00647828
0.00648332
0.00649037
0.00649629
0.00650928
0.00649835
0.00649041
0.00648514
0.00648285
0.00648304
0.00648523
0.00649035
0.00649837
0.00650924
0.00654122
0.00650923
0.0064963
0.00648938
0.00648532
0.00648527
0.00648929
0.00649632
0.00650926
0.00654115
0.00636623
0.00635636
0.00635279
0.00634989
0.00634896
0.00634896
0.0063499
0.0063528
0.00635638
0.00636623
0.00635636
0.00635522
0.00635277
0.00635061
0.00635004
0.00635004
0.0063506
0.00635274
0.00635515
0.00635615
0.00635277
0.00635275
0.00635076
0.00634913
0.00634826
0.00634824
0.00634904
0.00635047
0.00635244
0.00635243
0.00634985
0.00635057
0.00634911
0.00634751
0.00634626
0.00634603
0.00634717
0.00634867
0.00635016
0.0063495
0.0063489
0.00634996
0.00634817
0.00634603
0.00634455
0.00634449
0.00634588
0.00634778
0.00634957
0.00634855
0.00634884
0.00634972
0.00634785
0.00634589
0.00634447
0.00634447
0.00634588
0.00634779
0.00634958
0.0063486
0.00634952
0.00635015
0.00634865
0.00634708
0.00634588
0.00634589
0.0063471
0.00634876
0.00635035
0.00635036
0.0063524
0.00635234
0.00635032
0.00634867
0.00634781
0.00634792
0.00634887
0.0063512
0.00635326
0.00635334
0.00635605
0.00635489
0.00635239
0.0063503
0.00634978
0.00635045
0.00635109
0.00635331
0.00635586
0.00635701
0.00636596
0.00635619
0.00635262
0.00635038
0.0063495
0.00634952
0.00635049
0.00635338
0.00635703
0.00636687
0.00625064
0.00624817
0.00624788
0.00624763
0.00624758
0.00624758
0.00624763
0.00624789
0.00624819
0.00625067
0.00624816
0.00624918
0.00624897
0.00624872
0.00624864
0.00624864
0.00624872
0.00624899
0.00624922
0.0062483
0.00624786
0.00624896
0.00624877
0.00624855
0.00624841
0.00624841
0.00624856
0.00624885
0.00624907
0.006248
0.00624761
0.0062487
0.00624854
0.00624836
0.00624818
0.00624822
0.00624841
0.0062486
0.00624879
0.00624773
0.00624756
0.00624862
0.0062484
0.00624822
0.00624799
0.00624799
0.00624822
0.00624845
0.0062487
0.00624769
0.00624757
0.00624867
0.00624844
0.00624822
0.00624799
0.00624799
0.00624822
0.00624846
0.00624873
0.00624781
0.00624772
0.00624878
0.0062486
0.00624841
0.00624823
0.00624824
0.00624845
0.00624875
0.00624908
0.00624869
0.006248
0.00624907
0.00624885
0.00624863
0.0062485
0.00624862
0.00624889
0.0062498
0.00625014
0.00624919
0.00624833
0.00624933
0.00624912
0.00624898
0.00624899
0.00624967
0.00624987
0.00625025
0.00625052
0.00624954
0.00625083
0.00624848
0.00624831
0.00624872
0.00624878
0.00624888
0.00624895
0.00624924
0.00624955
0.00625204
0.0061788
0.00617808
0.00617818
0.00617831
0.00617835
0.00617835
0.00617831
0.00617819
0.0061781
0.00617883
0.00617808
0.00617884
0.00617899
0.0061791
0.00617912
0.00617913
0.00617911
0.00617903
0.00617891
0.00617829
0.00617817
0.00617899
0.00617919
0.00617928
0.0061793
0.00617932
0.00617933
0.00617937
0.0061792
0.00617841
0.00617829
0.00617909
0.00617928
0.00617938
0.00617942
0.00617954
0.00617954
0.00617949
0.00617932
0.00617854
0.00617834
0.00617914
0.00617933
0.00617953
0.00617957
0.00617959
0.00617958
0.00617951
0.00617934
0.00617858
0.00617838
0.00617927
0.00617948
0.00617958
0.00617959
0.00617959
0.00617959
0.00617951
0.00617936
0.00617862
0.00617851
0.00617931
0.00617949
0.00617957
0.00617959
0.00617959
0.00617958
0.00617954
0.0061794
0.00617873
0.00617842
0.00617923
0.00617942
0.00617951
0.00617953
0.00617955
0.00617957
0.00617958
0.00617945
0.0061787
0.00617834
0.00617909
0.00617925
0.00617938
0.00617943
0.00617952
0.00617955
0.0061795
0.00617938
0.00617864
0.00617903
0.00617836
0.00617851
0.00617874
0.00617882
0.00617886
0.00617884
0.00617873
0.00617865
0.00617936
0.00613227
0.00613202
0.00613207
0.00613213
0.00613215
0.00613216
0.00613214
0.00613208
0.00613204
0.00613229
0.00613202
0.00613241
0.00613252
0.00613259
0.00613262
0.00613263
0.0061326
0.00613254
0.00613246
0.00613215
0.00613206
0.00613251
0.00613268
0.00613277
0.00613281
0.00613282
0.0061328
0.0061328
0.00613266
0.00613223
0.00613212
0.00613259
0.00613277
0.00613289
0.00613295
0.00613303
0.006133
0.00613292
0.00613275
0.00613229
0.00613215
0.00613263
0.00613283
0.00613303
0.00613311
0.00613313
0.00613306
0.00613296
0.00613278
0.0061323
0.00613218
0.00613273
0.00613293
0.00613306
0.00613313
0.00613313
0.00613307
0.00613295
0.00613276
0.00613223
0.00613227
0.00613274
0.00613291
0.00613302
0.00613307
0.00613306
0.00613301
0.00613284
0.0061326
0.00613161
0.00613222
0.00613267
0.00613283
0.00613291
0.00613294
0.00613287
0.00613277
0.00613215
0.00613194
0.00613144
0.00613217
0.00613257
0.00613266
0.00613267
0.00613263
0.0061321
0.00613202
0.00613189
0.00613179
0.00613139
0.00613238
0.00613208
0.00613207
0.00613161
0.00613157
0.00613153
0.0061315
0.00613144
0.00613139
0.00613163
0.0060995
0.00609943
0.00609944
0.00609946
0.00609947
0.00609947
0.00609947
0.00609946
0.00609945
0.0060995
0.00609942
0.00609962
0.00609965
0.00609969
0.00609971
0.00609972
0.0060997
0.00609967
0.00609965
0.00609949
0.00609944
0.00609965
0.00609973
0.00609979
0.00609981
0.00609982
0.0060998
0.00609978
0.00609972
0.00609951
0.00609946
0.00609968
0.00609978
0.00609986
0.0060999
0.00609993
0.00609991
0.00609985
0.00609976
0.00609952
0.00609946
0.00609971
0.00609982
0.00609993
0.00609997
0.00609997
0.00609994
0.00609987
0.00609977
0.00609951
0.00609947
0.00609975
0.00609986
0.00609994
0.00609997
0.00609997
0.00609994
0.00609986
0.00609974
0.00609939
0.00609951
0.00609974
0.00609984
0.00609991
0.00609994
0.00609993
0.00609988
0.00609972
0.00609952
0.0060986
0.0060995
0.00609971
0.00609979
0.00609983
0.00609984
0.00609975
0.00609962
0.00609888
0.00609871
0.00609839
0.00609948
0.00609967
0.00609969
0.00609962
0.00609954
0.00609886
0.00609875
0.00609863
0.00609857
0.00609835
0.00609953
0.00609936
0.00609926
0.00609859
0.00609851
0.00609843
0.0060984
0.00609837
0.00609835
0.0060984
0.00608214
0.00608215
0.00608216
0.00608216
0.00608215
0.00608215
0.00608216
0.00608216
0.00608215
0.00608215
0.00608214
0.00608222
0.00608223
0.00608224
0.00608224
0.00608224
0.00608224
0.00608223
0.00608223
0.00608215
0.00608215
0.00608223
0.00608225
0.00608227
0.00608228
0.00608228
0.00608228
0.00608227
0.00608224
0.00608217
0.00608215
0.00608223
0.00608227
0.0060823
0.00608232
0.00608232
0.00608231
0.00608228
0.00608225
0.00608216
0.00608214
0.00608223
0.00608228
0.00608232
0.00608234
0.00608234
0.00608232
0.00608229
0.00608225
0.00608215
0.00608214
0.00608224
0.00608229
0.00608232
0.00608234
0.00608234
0.00608232
0.00608229
0.00608224
0.00608212
0.00608215
0.00608224
0.00608228
0.00608231
0.00608232
0.00608232
0.0060823
0.00608224
0.00608218
0.00608191
0.00608216
0.00608223
0.00608226
0.00608227
0.00608228
0.00608225
0.00608221
0.00608203
0.00608197
0.00608186
0.00608215
0.00608223
0.00608223
0.0060822
0.00608218
0.00608201
0.00608198
0.00608194
0.00608193
0.00608184
0.00608215
0.00608212
0.00608209
0.00608191
0.00608188
0.00608186
0.00608185
0.00608185
0.00608184
0.00608183
0.00607503
0.00607505
0.00607506
0.00607506
0.00607505
0.00607505
0.00607506
0.00607506
0.00607505
0.00607503
0.00607505
0.0060751
0.00607509
0.00607509
0.00607509
0.00607509
0.00607509
0.00607509
0.0060751
0.00607505
0.00607506
0.00607509
0.0060751
0.0060751
0.00607511
0.00607511
0.0060751
0.0060751
0.00607509
0.00607506
0.00607505
0.00607508
0.0060751
0.00607512
0.00607512
0.00607512
0.00607512
0.0060751
0.00607508
0.00607505
0.00607504
0.00607508
0.0060751
0.00607512
0.00607513
0.00607513
0.00607512
0.00607511
0.00607508
0.00607504
0.00607504
0.00607508
0.0060751
0.00607512
0.00607513
0.00607513
0.00607512
0.00607511
0.00607508
0.00607505
0.00607505
0.00607508
0.0060751
0.00607511
0.00607512
0.00607512
0.00607512
0.00607511
0.0060751
0.00607515
0.00607505
0.00607509
0.00607509
0.0060751
0.00607511
0.00607511
0.00607512
0.0060752
0.0060752
0.00607516
0.00607505
0.00607509
0.00607509
0.00607509
0.0060751
0.00607519
0.0060752
0.0060752
0.00607521
0.00607516
0.00607503
0.00607506
0.00607507
0.00607515
0.00607515
0.00607516
0.00607516
0.00607517
0.00607516
0.00607514
0.00607422
0.00607425
0.00607425
0.00607425
0.00607424
0.00607424
0.00607424
0.00607425
0.00607425
0.00607421
0.00607425
0.00607427
0.00607426
0.00607426
0.00607425
0.00607425
0.00607426
0.00607426
0.00607427
0.00607424
0.00607425
0.00607426
0.00607426
0.00607426
0.00607426
0.00607426
0.00607426
0.00607426
0.00607426
0.00607425
0.00607424
0.00607425
0.00607426
0.00607426
0.00607427
0.00607427
0.00607426
0.00607426
0.00607425
0.00607424
0.00607423
0.00607425
0.00607426
0.00607426
0.00607427
0.00607427
0.00607426
0.00607426
0.00607425
0.00607424
0.00607423
0.00607425
0.00607426
0.00607426
0.00607427
0.00607427
0.00607426
0.00607426
0.00607426
0.00607426
0.00607424
0.00607425
0.00607425
0.00607426
0.00607426
0.00607427
0.00607427
0.00607428
0.0060743
0.00607446
0.00607424
0.00607426
0.00607426
0.00607426
0.00607426
0.00607429
0.00607431
0.00607448
0.0060745
0.00607451
0.00607424
0.00607427
0.00607426
0.00607428
0.0060743
0.00607447
0.0060745
0.00607452
0.00607454
0.00607451
0.00607422
0.00607427
0.0060743
0.00607446
0.00607448
0.0060745
0.00607451
0.00607452
0.00607451
0.00607448
0.00607772
0.00607776
0.00607776
0.00607775
0.00607775
0.00607775
0.00607775
0.00607776
0.00607776
0.00607772
0.00607776
0.00607777
0.00607776
0.00607775
0.00607775
0.00607775
0.00607775
0.00607776
0.00607777
0.00607775
0.00607776
0.00607776
0.00607775
0.00607775
0.00607775
0.00607775
0.00607775
0.00607775
0.00607776
0.00607776
0.00607775
0.00607775
0.00607775
0.00607775
0.00607774
0.00607774
0.00607774
0.00607774
0.00607775
0.00607775
0.00607775
0.00607774
0.00607774
0.00607774
0.00607774
0.00607774
0.00607774
0.00607774
0.00607774
0.00607775
0.00607774
0.00607774
0.00607774
0.00607774
0.00607774
0.00607774
0.00607774
0.00607775
0.00607775
0.00607778
0.00607775
0.00607774
0.00607774
0.00607774
0.00607774
0.00607775
0.00607775
0.00607777
0.0060778
0.00607797
0.00607776
0.00607775
0.00607775
0.00607775
0.00607775
0.00607777
0.0060778
0.00607797
0.006078
0.00607802
0.00607775
0.00607777
0.00607776
0.00607778
0.0060778
0.00607796
0.00607799
0.00607802
0.00607804
0.00607802
0.00607772
0.00607778
0.00607781
0.00607797
0.00607799
0.00607801
0.00607802
0.00607803
0.00607803
0.00607799
0.00608489
0.00608492
0.00608493
0.00608492
0.00608492
0.00608492
0.00608492
0.00608493
0.00608492
0.00608489
0.00608492
0.00608493
0.00608492
0.00608492
0.00608491
0.00608491
0.00608492
0.00608492
0.00608493
0.00608492
0.00608493
0.00608492
0.00608492
0.00608491
0.00608491
0.00608491
0.00608491
0.00608492
0.00608492
0.00608493
0.00608492
0.00608491
0.00608491
0.00608491
0.00608491
0.00608491
0.00608491
0.00608491
0.00608491
0.00608492
0.00608492
0.00608491
0.00608491
0.00608491
0.00608491
0.00608491
0.00608491
0.00608491
0.00608491
0.00608492
0.00608492
0.00608491
0.00608491
0.00608491
0.00608491
0.00608491
0.00608491
0.00608491
0.00608491
0.00608493
0.00608492
0.00608491
0.00608491
0.00608491
0.00608491
0.00608491
0.00608491
0.00608493
0.00608494
0.00608502
0.00608493
0.00608492
0.00608492
0.00608491
0.00608491
0.00608492
0.00608494
0.00608502
0.00608504
0.00608505
0.00608492
0.00608494
0.00608493
0.00608493
0.00608494
0.00608501
0.00608503
0.00608505
0.00608506
0.00608505
0.00608488
0.00608493
0.00608495
0.00608503
0.00608503
0.00608504
0.00608505
0.00608506
0.00608505
0.00608501
0.00609536
0.00609539
0.0060954
0.00609539
0.00609539
0.00609539
0.00609539
0.0060954
0.00609539
0.00609536
0.00609539
0.0060954
0.0060954
0.00609539
0.00609538
0.00609538
0.00609539
0.00609539
0.0060954
0.00609539
0.0060954
0.00609539
0.00609539
0.00609538
0.00609538
0.00609538
0.00609538
0.00609539
0.00609539
0.0060954
0.00609539
0.00609539
0.00609538
0.00609538
0.00609538
0.00609538
0.00609538
0.00609538
0.00609539
0.00609539
0.00609539
0.00609538
0.00609538
0.00609538
0.00609538
0.00609538
0.00609538
0.00609538
0.00609538
0.00609539
0.00609539
0.00609538
0.00609538
0.00609538
0.00609538
0.00609538
0.00609538
0.00609538
0.00609538
0.00609539