/*--------------------------------*- C++ -*----------------------------------*\
  =========                 |
  \\      /  F ield         | OpenFOAM: The Open Source CFD Toolbox
   \\    /   O peration     | Website:  https://openfoam.org
    \\  /    A nd           | Version:  9
     \\/     M anipulation  |
\*---------------------------------------------------------------------------*/
FoamFile
{
    format      ascii;
    class       volScalarField;
    location    "1";
    object      CO2.gas;
}
// * * * * * * * * * * * * * * * * * * * * * * * * * * * * * * * * * * * * * //

dimensions      [0 0 0 0 0 0 0];

internalField   nonuniform List<scalar> 
137980
(
1.89179e-160
4.44672e-160
1.93133e-160
1.34828e-160
1.0805e-160
1.71178e-160
2.14896e-160
2.54348e-160
4.96858e-160
1.14836e-159
2.58798e-160
7.45305e-161
2.80724e-161
1.60091e-161
7.73369e-162
1.55096e-161
3.03091e-161
3.49438e-161
4.22585e-161
1.23858e-160
3.99946e-160
5.47167e-161
5.48684e-162
8.92303e-163
3.47516e-163
1.03774e-162
5.27673e-162
3.23628e-161
1.86175e-160
8.14203e-160
5.05648e-160
8.23445e-161
7.73793e-162
3.63205e-163
5.31939e-164
1.55524e-163
1.54264e-162
1.33307e-161
8.06387e-161
3.37658e-160
2.76937e-160
3.77513e-161
3.01457e-162
1.60345e-163
2.19887e-164
3.11469e-164
2.80547e-163
2.97357e-162
2.40004e-161
1.52425e-160
1.50838e-160
2.02982e-161
1.60387e-162
1.29988e-163
2.61746e-164
1.82337e-164
1.48512e-163
2.83206e-162
3.27431e-161
2.47689e-160
8.16916e-161
1.02592e-161
6.94008e-163
2.03989e-163
1.83123e-163
1.37475e-163
2.51519e-163
6.6463e-162
7.40986e-161
4.44508e-160
8.69871e-161
5.19823e-162
1.31076e-162
2.15369e-162
2.65375e-162
2.05792e-162
6.50111e-163
2.93424e-162
4.22061e-161
2.22644e-160
2.62789e-160
1.92113e-161
1.57755e-161
2.19652e-161
2.05782e-161
1.55155e-161
6.51501e-162
2.47326e-162
1.46318e-161
1.87592e-160
6.39203e-160
1.04626e-160
1.31688e-160
1.37725e-160
1.1069e-160
9.05209e-161
4.9298e-161
3.75527e-161
4.34438e-161
5.93019e-160
1.86129e-161
1.13924e-161
1.02242e-161
1.17994e-161
1.16279e-161
1.37164e-161
1.63175e-161
2.15732e-161
2.67403e-161
3.00341e-161
1.73203e-161
7.18618e-162
3.22191e-162
2.65919e-162
3.06508e-162
4.8047e-162
8.91889e-162
1.47813e-161
2.25564e-161
3.71384e-161
2.87102e-161
1.24699e-161
2.50944e-162
1.01147e-162
9.67053e-163
1.9468e-162
4.96726e-162
1.32729e-161
2.93992e-161
6.66757e-161
3.75131e-161
1.86132e-161
5.23848e-162
8.61204e-163
4.70597e-163
9.72029e-163
2.80074e-162
9.11558e-162
2.35175e-161
4.86501e-161
3.67897e-161
2.0709e-161
6.27736e-162
1.10802e-162
3.71422e-163
5.80935e-163
1.45087e-162
4.12976e-162
1.17922e-161
2.952e-161
1.56223e-161
8.97643e-162
2.89377e-162
8.26435e-163
7.04661e-163
5.57529e-163
1.19513e-162
3.36375e-162
1.04708e-161
3.39536e-161
1.26432e-161
5.40928e-162
1.67446e-162
1.92547e-162
2.87868e-162
1.84009e-162
9.59685e-163
2.95369e-162
9.19636e-162
3.37429e-161
1.06635e-161
4.14293e-162
3.15036e-162
7.14856e-162
1.07956e-161
8.6731e-162
3.35176e-162
2.82032e-162
6.14755e-162
1.7766e-161
1.39816e-161
7.06874e-162
1.03303e-161
1.86564e-161
2.83912e-161
2.4387e-161
1.39755e-161
5.70198e-162
6.73636e-162
1.5899e-161
1.3065e-161
1.39052e-161
1.67714e-161
3.18445e-161
5.15177e-161
4.59859e-161
2.4478e-161
1.20796e-161
8.5972e-162
2.26877e-161
2.70573e-161
2.92348e-162
2.95999e-162
2.17863e-162
1.7974e-162
1.70748e-162
1.81654e-162
1.97088e-162
1.95689e-162
1.89258e-161
4.96334e-162
5.09311e-162
3.81461e-162
2.46911e-162
1.74411e-162
1.06504e-162
1.08147e-162
1.30449e-162
1.85798e-162
4.72177e-162
1.23631e-161
7.89012e-162
3.99795e-162
2.17487e-162
1.33641e-162
7.52105e-163
8.11056e-163
1.15674e-162
2.75207e-162
7.41324e-162
1.56897e-161
8.80192e-162
3.00382e-162
9.20347e-163
5.67611e-163
4.87479e-163
6.23387e-163
1.01179e-162
3.17721e-162
8.74667e-162
9.8953e-162
4.19229e-162
1.03797e-162
5.8076e-163
5.37972e-163
5.23974e-163
6.0812e-163
1.01476e-162
2.97402e-162
7.86501e-162
3.18234e-162
1.26727e-162
8.97619e-163
8.36059e-163
8.52375e-163
8.27623e-163
1.14719e-162
2.60997e-162
6.73104e-162
5.83945e-162
1.77813e-162
1.31744e-162
1.19725e-162
1.22087e-162
1.28401e-162
1.45241e-162
3.9747e-162
1.11183e-161
1.78554e-161
1.37767e-161
1.99578e-162
1.89028e-162
1.48925e-162
1.67678e-162
2.02256e-162
5.1859e-162
1.68524e-161
2.81721e-161
2.5713e-161
2.26275e-161
2.45e-162
1.83875e-162
1.73e-162
2.7186e-162
4.00193e-162
1.88916e-161
3.67634e-161
3.46881e-161
2.4542e-161
1.82316e-161
0
2.28687e-162
2.49395e-162
3.10671e-162
1.12643e-161
3.83693e-161
4.50368e-161
3.472e-161
9.05323e-162
1.36395e-161
1.09299e-162
1.38204e-162
2.0726e-162
2.1835e-162
1.87395e-162
1.64546e-162
6.59337e-163
4.97819e-163
5.0778e-163
4.64186e-163
6.24517e-163
6.25449e-163
9.09728e-163
9.43903e-163
7.18782e-163
4.24341e-163
4.37873e-163
4.64511e-163
4.88346e-163
4.85107e-163
3.49922e-163
3.25141e-163
3.92109e-163
3.90019e-163
4.42542e-163
5.09152e-163
5.46193e-163
5.42252e-163
5.28327e-163
5.02469e-163
8.14072e-163
4.42814e-163
3.58654e-163
5.76396e-163
6.73341e-163
6.88187e-163
6.79198e-163
6.54115e-163
6.55965e-163
6.84911e-163
1.15135e-162
7.72671e-163
8.34171e-163
8.96457e-163
8.75787e-163
8.39612e-163
8.37114e-163
8.56769e-163
9.18051e-163
1.10808e-162
1.45586e-162
1.43597e-162
1.35219e-162
1.15329e-162
1.07827e-162
1.09409e-162
1.13779e-162
1.25817e-162
1.53311e-162
1.89896e-162
2.38088e-162
2.11515e-162
1.54171e-162
1.24502e-162
1.32737e-162
1.49433e-162
1.674e-162
2.23761e-162
3.00823e-162
2.51195e-162
3.05766e-162
2.23794e-162
1.38789e-162
1.45706e-162
2.20473e-162
2.48045e-162
3.26968e-162
5.4922e-162
4.02441e-162
2.04135e-162
3.02291e-162
1.18475e-162
1.34052e-162
2.18437e-162
4.53123e-162
4.94322e-162
9.59489e-162
9.29269e-162
3.37106e-162
2.59383e-162
8.59701e-163
6.83093e-163
2.35303e-162
3.68483e-162
8.44879e-162
1.08429e-161
2.03524e-161
1.06175e-161
7.50996e-162
6.04685e-162
1.36232e-163
6.58502e-164
5.11664e-164
4.1784e-164
3.91265e-164
5.73213e-164
1.03096e-163
1.43257e-163
1.77305e-163
1.76437e-163
1.65783e-163
8.5719e-164
6.8495e-164
5.13733e-164
6.72181e-164
1.34983e-163
1.31314e-163
1.19799e-163
1.14677e-163
1.32056e-163
1.95599e-163
8.63267e-164
6.94167e-164
8.87877e-164
1.75069e-163
1.4099e-163
9.10898e-164
7.96188e-164
9.30692e-164
1.31482e-163
2.09062e-163
1.27801e-163
1.11844e-163
2.06797e-163
1.69259e-163
8.55945e-164
6.75118e-164
7.13015e-164
1.05779e-163
2.21597e-163
2.21575e-163
2.08819e-163
2.19504e-163
1.79888e-163
9.56103e-164
7.09864e-164
6.59572e-164
9.03144e-164
2.3433e-163
3.88221e-163
2.21603e-163
1.74455e-163
1.466e-163
9.74361e-164
7.72288e-164
7.08978e-164
8.07824e-164
1.91029e-163
4.80303e-163
4.31187e-163
2.23032e-163
1.82064e-163
1.20791e-163
9.02549e-164
9.6692e-164
1.07304e-163
1.58378e-163
5.83165e-163
5.70669e-163
2.64696e-163
2.2763e-163
1.62062e-163
1.08063e-163
1.20567e-163
2.06468e-163
2.27795e-163
4.56979e-163
9.53941e-163
5.53307e-163
1.50005e-163
2.11446e-163
1.10129e-163
1.26528e-163
2.68462e-163
6.41822e-163
6.59788e-163
1.35204e-162
1.13205e-162
4.67717e-163
1.30302e-163
1.18879e-163
9.79724e-164
1.93969e-163
4.59798e-163
1.10828e-162
1.76307e-162
1.96102e-162
1.24289e-162
4.63177e-163
1.46939e-163
1.10559e-165
1.22626e-165
1.63986e-165
3.41699e-165
1.1136e-164
3.88137e-164
7.39337e-164
9.04751e-164
9.89452e-164
1.11739e-163
1.09763e-165
1.45671e-165
3.01318e-165
9.45516e-165
3.61077e-164
7.25716e-164
8.30102e-164
7.59011e-164
4.59091e-164
4.89976e-164
1.16896e-165
1.8172e-165
5.05599e-165
1.8614e-164
5.58296e-164
7.65696e-164
7.25645e-164
5.38104e-164
2.40128e-164
2.22787e-164
1.39955e-165
2.66699e-165
7.32986e-165
2.47805e-164
5.20946e-164
5.19741e-164
4.51794e-164
2.29596e-164
1.31915e-164
1.66966e-164
2.45905e-165
4.27278e-165
8.50704e-165
1.89446e-164
2.20026e-164
2.05801e-164
1.53472e-164
8.96207e-165
9.67361e-165
1.88354e-164
1.38937e-164
1.36183e-164
1.29829e-164
1.19227e-164
1.04126e-164
8.51715e-165
6.1608e-165
6.191e-165
1.05331e-164
3.10026e-164
1.4129e-164
1.38148e-164
1.28941e-164
1.08169e-164
8.41801e-165
6.50156e-165
5.49758e-165
7.09401e-165
2.55771e-164
3.52704e-164
1.0694e-164
1.0367e-164
9.39851e-165
7.86387e-165
7.16658e-165
6.20447e-165
6.85718e-165
2.12749e-164
3.74339e-164
3.09214e-164
8.51476e-165
8.94672e-165
9.5019e-165
1.02133e-164
1.2573e-164
1.16408e-164
2.45732e-164
4.73305e-164
3.44628e-164
1.13668e-164
1.96238e-164
2.04642e-164
1.95342e-164
2.60707e-164
5.1663e-164
5.82049e-164
5.85176e-164
3.65505e-164
1.12063e-164
4.28793e-165
4.57229e-166
4.50029e-166
4.44051e-166
4.12366e-166
6.64827e-166
4.15136e-165
2.08783e-164
4.6083e-164
5.57769e-164
6.1659e-164
3.98354e-166
4.35837e-166
4.10132e-166
4.20996e-166
1.38819e-165
6.63308e-165
2.1711e-164
3.42696e-164
3.1929e-164
3.83132e-164
1.56404e-166
2.68625e-166
2.61394e-166
5.03566e-166
2.47984e-165
8.08605e-165
2.20244e-164
2.43588e-164
2.19942e-164
1.75467e-164
8.64672e-167
1.23774e-166
1.67649e-166
6.13868e-166
2.49204e-165
7.73065e-165
1.16565e-164
1.11798e-164
9.36761e-165
6.31676e-165
8.45921e-167
9.79732e-167
1.21749e-166
2.61467e-166
6.68762e-166
1.78222e-165
2.30318e-165
2.2354e-165
1.83265e-165
1.75837e-165
1.6004e-166
1.86723e-166
2.11181e-166
2.68265e-166
3.06962e-166
3.62281e-166
4.38311e-166
4.58557e-166
5.3648e-166
9.30326e-166
4.06172e-166
3.62379e-166
3.47476e-166
3.50307e-166
3.53661e-166
3.52136e-166
3.51091e-166
3.64679e-166
5.65873e-166
1.23804e-165
4.5119e-166
4.04934e-166
4.01242e-166
3.94076e-166
3.76263e-166
3.74426e-166
4.00474e-166
5.93312e-166
1.21518e-165
2.59482e-165
3.44624e-166
3.53631e-166
3.86187e-166
4.27378e-166
5.41057e-166
7.13094e-166
1.12888e-165
2.30098e-165
3.2012e-165
3.11333e-165
4.77991e-166
4.75416e-166
4.59007e-166
6.03392e-166
1.42312e-165
3.45798e-165
7.22082e-165
6.15063e-165
3.46467e-165
1.87458e-165
3.78472e-166
5.4766e-166
2.90545e-166
2.52016e-166
3.91165e-166
2.05906e-165
1.04571e-164
1.56655e-164
1.80939e-164
2.25859e-164
3.49397e-166
4.70098e-166
3.58226e-166
2.71013e-166
3.13201e-166
1.49969e-165
7.60345e-165
1.20108e-164
1.03827e-164
1.42867e-164
2.1428e-166
3.46588e-166
3.25363e-166
2.58866e-166
2.93125e-166
1.32905e-165
6.44559e-165
8.02011e-165
7.77978e-165
5.55486e-165
1.12586e-166
2.11535e-166
2.1706e-166
1.92532e-166
2.55857e-166
1.27212e-165
3.73512e-165
3.80388e-165
2.76463e-165
1.25415e-165
7.73141e-167
1.33021e-166
1.40577e-166
1.39494e-166
2.17145e-166
9.64762e-166
1.45581e-165
1.29389e-165
6.78978e-166
3.47126e-166
1.77168e-167
6.20825e-167
7.95398e-167
1.01962e-166
1.92976e-166
5.23466e-166
5.26078e-166
3.78864e-166
1.79795e-166
2.14602e-166
9.20464e-168
1.90471e-167
3.37097e-167
4.82241e-167
8.90964e-167
1.4502e-166
1.37615e-166
9.45642e-167
9.48477e-167
2.07137e-166
9.0703e-168
1.08304e-167
1.46087e-167
2.06528e-167
2.64555e-167
3.81031e-167
3.84887e-167
4.31835e-167
8.04502e-167
2.91852e-166
9.29033e-168
9.85115e-168
1.0729e-167
1.27932e-167
1.60609e-167
1.938e-167
2.62036e-167
4.97919e-167
1.29614e-166
3.13547e-166
9.80335e-168
1.34556e-167
1.54128e-167
1.55279e-167
1.67019e-167
2.35647e-167
4.85264e-167
8.21372e-167
1.64195e-166
1.61319e-166
4.01685e-167
1.24221e-167
4.06217e-167
2.0893e-166
4.64035e-166
8.04082e-166
1.20818e-165
1.3898e-165
1.65399e-165
1.97366e-165
3.02345e-167
1.58403e-167
2.0254e-167
1.56618e-166
3.99628e-166
6.91991e-166
9.69308e-166
7.48709e-166
5.14313e-166
6.66622e-166
1.55457e-167
9.23574e-168
1.71192e-167
1.44231e-166
3.77086e-166
5.94324e-166
7.26049e-166
4.41077e-166
2.44953e-166
1.83333e-166
6.56913e-168
3.77596e-168
4.32955e-167
1.4349e-166
2.62777e-166
2.92869e-166
2.12106e-166
1.29134e-166
1.02661e-166
1.16013e-166
5.9309e-168
1.59582e-167
5.01424e-167
7.27213e-167
7.62117e-167
7.44807e-167
5.95937e-167
7.78453e-167
1.17586e-166
1.18909e-166
1.15787e-167
1.35303e-167
1.84741e-167
2.4612e-167
2.55587e-167
2.58457e-167
3.75328e-167
9.08223e-167
1.2248e-166
1.19914e-166
8.60399e-168
9.94765e-168
7.37544e-168
9.91301e-168
1.12455e-167
1.41926e-167
3.24965e-167
9.39373e-167
1.1796e-166
1.25707e-166
2.20375e-168
4.7295e-168
5.14205e-168
5.77043e-168
6.56653e-168
9.29956e-168
2.99567e-167
8.73626e-167
1.02283e-166
1.06986e-166
1.03397e-168
1.86875e-168
2.27353e-168
3.00987e-168
4.18784e-168
6.17299e-168
2.24849e-167
8.50697e-167
8.92004e-167
8.59857e-167
8.13534e-169
1.06249e-168
1.2483e-168
1.61377e-168
2.13649e-168
3.34507e-168
1.32873e-167
9.22992e-167
7.80542e-167
5.96968e-167
3.65951e-169
7.6765e-169
3.90933e-169
3.69806e-170
1.02397e-168
7.48494e-168
5.338e-168
9.64835e-169
3.06775e-168
9.40908e-168
1.71797e-169
2.45308e-169
9.38781e-170
2.68661e-170
1.49712e-169
1.56348e-168
5.1704e-169
1.13967e-169
3.25999e-170
3.20138e-170
5.95614e-170
6.79483e-170
3.07324e-170
2.15331e-170
9.82921e-170
4.95461e-169
4.3679e-169
1.43906e-169
3.18352e-170
2.12749e-170
1.6038e-170
1.70315e-170
1.36734e-170
3.89099e-170
3.97735e-169
7.14189e-169
5.61868e-169
1.5333e-169
3.17546e-170
2.12692e-170
1.72582e-170
2.50646e-170
6.14287e-170
3.15001e-169
7.86123e-169
8.13467e-169
4.78171e-169
1.17975e-169
3.34186e-170
2.26545e-170
2.76715e-170
3.08786e-170
7.12799e-170
3.17568e-169
5.95228e-169
5.99338e-169
3.97721e-169
1.26946e-169
4.81635e-170
2.50713e-170
9.99711e-170
7.38841e-170
6.94921e-170
8.67044e-170
1.61084e-169
2.85014e-169
2.98719e-169
2.02598e-169
8.1826e-170
3.25608e-170
2.38781e-169
2.03191e-169
1.49674e-169
1.09651e-169
1.02832e-169
1.15646e-169
1.94516e-169
2.11127e-169
1.35666e-169
4.69971e-170
2.59922e-169
2.16406e-169
1.89421e-169
1.55854e-169
1.18832e-169
1.09638e-169
1.3251e-169
2.13093e-169
1.9805e-169
8.57135e-170
1.79121e-169
1.40717e-169
1.25702e-169
1.21524e-169
1.09837e-169
1.02511e-169
1.06644e-169
4.83778e-169
6.53415e-169
2.87797e-169
1.70618e-172
1.27233e-172
8.24366e-173
6.21414e-173
1.45082e-172
3.26662e-172
2.71975e-172
1.9696e-172
2.0099e-172
2.62317e-172
7.39867e-173
6.42235e-173
5.39548e-173
5.65962e-173
1.01635e-172
2.28046e-172
2.60786e-172
2.68768e-172
2.38214e-172
1.65003e-172
5.23369e-173
4.99809e-173
5.24854e-173
6.82508e-173
1.25572e-172
2.37049e-172
3.55123e-172
3.71162e-172
3.11151e-172
1.87304e-172
9.97467e-173
6.22595e-173
7.11849e-173
1.15626e-172
2.61475e-172
4.02694e-172
5.6114e-172
5.94128e-172
4.88446e-172
2.68141e-172
1.73537e-171
5.37584e-172
3.2974e-172
3.93828e-172
6.22303e-172
8.69067e-172
1.10392e-171
1.14502e-171
8.92121e-172
4.40687e-172
1.87634e-170
7.88929e-171
3.52511e-171
2.65803e-171
2.71444e-171
2.78811e-171
2.7591e-171
2.56739e-171
1.65909e-171
7.63684e-172
3.44076e-170
2.32108e-170
1.62191e-170
1.11245e-170
7.75287e-171
5.5232e-171
4.36469e-171
3.73399e-171
2.46071e-171
1.17956e-171
1.39554e-170
1.25735e-170
1.08809e-170
8.76361e-171
6.7864e-171
5.09151e-171
4.21873e-171
3.81752e-171
2.95474e-171
1.46858e-171
3.29637e-171
3.39792e-171
3.43299e-171
3.36961e-171
3.03535e-171
2.37165e-171
2.32885e-171
2.88273e-171
3.07538e-171
1.77141e-171
1.0248e-171
1.25326e-171
1.55132e-171
1.59907e-171
1.52942e-171
1.40196e-171
2.1127e-171
7.79937e-171
7.6108e-171
1.99614e-171
5.29147e-173
3.02614e-173
9.43321e-174
4.9861e-174
4.22278e-174
8.94142e-174
2.45754e-173
2.8884e-173
2.79953e-173
2.09904e-173
4.19241e-174
3.2201e-174
2.39258e-174
2.94645e-174
6.25063e-174
2.97596e-173
6.09938e-173
6.18534e-173
4.69248e-173
2.25965e-173
1.27215e-174
2.98425e-174
4.89701e-174
8.75171e-174
2.09707e-173
8.55864e-173
1.13747e-172
1.00714e-172
4.93462e-173
1.70291e-173
4.87676e-174
1.29924e-173
1.99063e-173
2.9266e-173
5.74758e-173
1.56478e-172
1.67697e-172
1.26487e-172
4.07287e-173
1.08307e-173
2.96337e-173
4.06953e-173
5.52021e-173
7.38639e-173
1.31957e-172
2.48282e-172
2.47264e-172
1.49547e-172
3.73905e-173
8.73705e-174
1.88331e-172
1.2263e-172
1.25911e-172
1.56478e-172
2.72906e-172
3.76924e-172
3.64723e-172
1.74956e-172
3.71369e-173
1.19275e-173
3.53151e-172
2.15102e-172
2.23662e-172
3.12256e-172
4.8609e-172
5.28264e-172
4.46784e-172
1.75271e-172
3.96518e-173
1.95165e-173
3.35761e-172
2.58222e-172
3.75924e-172
6.92073e-172
7.39065e-172
6.13026e-172
4.518e-172
1.61161e-172
5.67256e-173
4.4611e-173
2.50527e-172
3.96591e-172
9.76243e-172
1.3198e-171
1.1126e-171
6.42992e-172
4.24377e-172
1.61054e-172
1.57367e-172
2.28171e-172
3.75581e-172
1.36747e-171
2.40497e-171
2.42925e-171
1.86772e-171
7.67094e-172
4.06185e-172
1.73067e-172
1.64996e-172
2.65908e-172
4.65867e-174
1.14634e-173
1.5588e-173
1.23142e-173
3.86339e-174
8.80402e-175
2.32883e-175
8.39164e-176
4.50054e-176
4.98499e-176
8.07337e-175
2.66352e-174
2.8328e-174
2.01889e-174
5.99948e-175
1.68309e-175
9.0212e-176
6.5462e-176
5.96766e-176
8.16168e-176
7.88604e-175
1.59178e-174
1.0881e-174
5.65558e-175
3.67615e-175
3.50632e-175
3.17678e-175
2.12856e-175
1.20429e-175
1.51416e-175
2.81425e-174
9.73311e-174
7.06013e-174
4.1132e-174
2.75212e-174
2.12859e-174
1.27526e-174
5.25556e-175
2.12693e-175
3.11531e-175
6.58725e-174
3.2021e-173
2.92115e-173
1.89718e-173
1.23284e-173
8.25045e-174
4.15123e-174
1.39261e-174
4.78901e-175
8.84185e-175
1.78765e-173
7.74879e-173
7.75922e-173
5.62142e-173
3.71599e-173
2.42038e-173
1.1686e-173
3.61521e-174
1.22836e-174
2.7008e-174
5.31088e-173
1.69311e-172
1.65475e-172
1.20983e-172
8.32527e-173
5.50098e-173
2.71265e-173
8.76354e-174
2.35033e-174
2.77236e-174
1.64009e-172
3.31401e-172
2.98763e-172
2.14431e-172
1.5494e-172
1.02113e-172
5.1391e-173
1.82446e-173
4.60374e-174
2.94308e-174
4.30243e-172
5.67117e-172
4.55865e-172
3.65432e-172
2.69008e-172
1.69448e-172
8.08157e-173
3.0797e-173
8.56663e-174
3.40268e-174
8.1143e-172
8.41796e-172
7.17759e-172
6.38819e-172
4.7445e-172
2.85118e-172
1.19998e-172
4.27329e-173
1.39275e-173
4.58507e-174
5.52757e-176
1.31052e-175
1.42791e-175
1.06603e-175
2.12033e-176
4.24582e-177
2.1248e-177
2.33056e-177
5.25873e-177
3.0103e-176
1.01937e-176
2.36779e-176
2.29948e-176
1.42151e-176
3.40891e-177
2.47025e-177
2.85089e-177
3.67951e-177
1.07089e-176
8.30684e-176
1.32202e-177
2.40001e-177
2.33127e-177
3.45243e-177
7.00548e-177
1.05438e-176
1.03446e-176
7.80837e-177
1.52191e-176
1.28716e-175
4.62947e-177
7.82922e-177
1.91486e-176
4.97002e-176
6.84303e-176
6.58328e-176
4.98152e-176
1.99224e-176
1.94515e-176
1.16045e-175
4.30842e-176
1.02189e-175
2.27568e-175
3.94892e-175
4.1584e-175
3.69522e-175
2.27434e-175
7.82974e-176
3.12256e-176
1.01611e-175
2.93996e-175
7.16909e-175
1.39819e-174
1.91968e-174
1.88592e-174
1.58959e-174
8.65638e-175
3.04205e-175
7.48132e-176
1.03822e-175
1.53886e-174
3.58207e-174
5.97518e-174
7.07251e-174
6.67966e-174
5.18818e-174
2.53426e-174
9.13969e-175
2.10169e-175
1.30003e-175
6.62783e-174
1.40619e-173
1.99447e-173
2.13544e-173
1.92729e-173
1.3003e-173
5.65504e-174
1.97457e-174
5.03861e-175
1.66794e-175
2.41256e-173
4.46129e-173
5.50319e-173
5.58309e-173
4.75836e-173
2.74419e-173
1.00767e-173
2.96838e-174
7.75713e-175
1.99186e-175
7.51115e-173
1.17449e-172
1.32888e-172
1.32465e-172
1.07781e-172
6.02763e-173
2.14793e-173
5.05992e-174
1.01829e-174
2.28495e-175
7.75167e-178
8.22124e-178
7.11658e-178
5.48754e-178
5.28767e-178
7.05006e-178
1.79027e-177
2.16153e-177
2.83612e-177
4.77514e-177
3.83778e-178
3.66375e-178
3.33803e-178
3.62368e-178
5.01856e-178
1.20976e-177
2.27168e-177
2.24851e-177
3.00616e-177
7.20621e-177
3.13413e-178
1.92816e-178
2.2173e-178
3.96612e-178
8.82505e-178
2.35089e-177
2.39635e-177
1.8631e-177
2.94045e-177
1.20467e-176
3.68431e-178
2.12164e-178
4.2873e-178
1.1908e-177
2.53435e-177
3.18568e-177
2.54746e-177
1.7402e-177
3.38322e-177
2.32707e-176
2.84405e-178
6.47056e-178
1.9651e-177
5.26455e-177
7.95996e-177
6.99239e-177
3.98044e-177
1.97426e-177
4.48441e-177
4.28987e-176
1.06728e-177
4.02832e-177
1.16238e-176
2.78312e-176
3.58327e-176
2.97969e-176
1.26349e-176
3.39444e-177
5.37771e-177
6.35071e-176
7.0666e-177
2.35493e-176
6.38456e-176
1.33866e-175
1.5516e-175
1.22795e-175
4.43121e-176
8.41472e-177
5.86876e-177
5.58294e-176
3.93631e-176
1.17715e-175
2.99513e-175
5.41195e-175
5.84655e-175
4.38958e-175
1.47986e-175
2.7486e-176
5.86329e-177
3.04576e-176
1.8587e-175
4.99846e-175
1.17082e-174
1.86145e-174
1.96231e-174
1.4461e-174
5.86305e-175
1.60774e-175
1.55708e-176
1.34031e-176
7.53133e-175
1.79881e-174
3.83015e-174
5.68548e-174
6.14314e-174
5.02603e-174
2.95446e-174
1.60589e-174
5.13118e-175
7.72139e-176
4.93505e-178
5.38645e-178
4.88716e-178
7.03902e-178
1.38556e-177
3.0381e-177
3.86923e-177
3.45593e-177
3.07605e-177
2.83037e-177
3.68121e-178
2.64054e-178
3.54624e-178
1.13074e-177
2.61095e-177
4.00896e-177
3.96831e-177
2.9962e-177
2.32089e-177
1.96629e-177
2.00251e-178
1.72163e-178
4.88245e-178
1.56708e-177
2.92042e-177
3.90672e-177
3.04364e-177
2.02221e-177
1.61578e-177
2.18923e-177
1.86693e-178
1.77454e-178
5.53633e-178
1.38542e-177
2.14552e-177
2.28174e-177
1.74145e-177
1.82972e-177
1.89109e-177
6.37694e-177
1.79913e-178
1.9975e-178
3.25147e-178
4.10701e-178
5.81905e-178
8.40838e-178
1.28785e-177
2.03652e-177
4.44999e-177
1.93804e-176
1.26699e-178
2.2878e-178
2.13939e-178
1.8826e-178
2.53575e-178
4.69905e-178
9.90404e-178
2.16962e-177
6.88137e-177
3.04416e-176
2.0149e-178
4.53845e-178
3.67664e-178
2.36553e-178
2.53207e-178
4.08759e-178
7.92651e-178
1.6384e-177
5.46583e-177
2.36257e-176
7.98874e-178
1.57198e-177
1.26998e-177
7.60653e-178
6.51274e-178
7.25604e-178
1.12883e-177
1.62147e-177
2.5279e-177
7.80925e-177
3.45711e-177
4.97208e-177
4.11802e-177
2.8193e-177
2.67095e-177
3.17029e-177
5.42047e-177
8.97766e-177
1.03578e-176
1.979e-176
1.26819e-176
1.42445e-176
1.27156e-176
1.05559e-176
1.17067e-176
1.74706e-176
3.81112e-176
8.49131e-176
1.50015e-175
3.77814e-175
8.05393e-178
6.0764e-178
9.09462e-178
2.2579e-177
3.82988e-177
4.33103e-177
3.96361e-177
2.8037e-177
1.33869e-177
1.16205e-177
2.95644e-178
3.67144e-178
1.61991e-177
3.65302e-177
4.39745e-177
4.50062e-177
3.94959e-177
2.46801e-177
1.37498e-177
1.0224e-177
1.71548e-178
6.01385e-178
2.12896e-177
3.75872e-177
4.20458e-177
4.17425e-177
3.37126e-177
1.66604e-177
7.42558e-178
3.6582e-178
1.69203e-178
7.39348e-178
1.84966e-177
2.57702e-177
3.11264e-177
3.16281e-177
2.17082e-177
6.49737e-178
3.19179e-178
3.1392e-178
1.9809e-178
5.32834e-178
5.59546e-178
7.44108e-178
1.5176e-177
2.02974e-177
1.51976e-177
5.07306e-178
4.01671e-178
9.14283e-178
1.69588e-178
1.61602e-178
1.46776e-178
2.30119e-178
7.34432e-178
1.40238e-177
1.3972e-177
8.2703e-178
8.37127e-178
1.66736e-177
1.05576e-178
1.09284e-178
1.16999e-178
1.11815e-178
3.09273e-178
1.08202e-177
1.40506e-177
1.22217e-177
1.17571e-177
1.61454e-177
7.95422e-179
1.89249e-178
2.24807e-178
1.08157e-178
1.57635e-178
3.81947e-178
8.93877e-178
1.08834e-177
1.15072e-177
1.34341e-177
1.93204e-178
6.30405e-178
6.79416e-178
2.26323e-178
1.47661e-178
1.58655e-178
2.1552e-178
3.87913e-178
6.95232e-178
1.60968e-177
1.31895e-177
2.36724e-177
2.38127e-177
8.7088e-178
4.10639e-178
1.81792e-178
1.39673e-178
3.23166e-178
1.09763e-177
8.44515e-177
8.9912e-178
8.74309e-178
1.34242e-177
2.00013e-177
1.77632e-177
1.02852e-177
3.05631e-178
1.86283e-178
1.83583e-178
1.68668e-178
4.76883e-178
9.17368e-178
2.07099e-177
2.27513e-177
1.08456e-177
4.32537e-178
2.63693e-178
2.50429e-178
2.10256e-178
1.56222e-178
4.82193e-178
1.51347e-177
2.31748e-177
2.13587e-177
8.95832e-178
4.41275e-178
3.01693e-178
2.3097e-178
2.13295e-178
2.10105e-178
5.29976e-178
1.53628e-177
2.09113e-177
2.17338e-177
1.54358e-177
5.93599e-178
2.10948e-178
1.14763e-178
1.13711e-178
1.35302e-178
4.68564e-178
7.9924e-178
1.20222e-177
1.94491e-177
2.11331e-177
1.15514e-177
2.10666e-178
1.25423e-178
1.98556e-178
2.97732e-178
2.29014e-178
2.06413e-178
2.53522e-178
6.75172e-178
1.56665e-177
1.60088e-177
5.64323e-178
4.13891e-178
7.0833e-178
7.97358e-178
1.23894e-178
1.05434e-178
1.05383e-178
1.6499e-178
7.29492e-178
1.7663e-177
1.66444e-177
1.13708e-177
1.08862e-177
9.4142e-178
9.23733e-179
8.92521e-179
9.45949e-179
9.1632e-179
3.0748e-178
1.32027e-177
1.89576e-177
1.3263e-177
1.07667e-177
8.5883e-178
6.74584e-179
9.20405e-179
1.14315e-178
7.63159e-179
1.60391e-178
4.19494e-178
6.11576e-178
5.63217e-178
4.10263e-178
3.51042e-178
7.33915e-179
2.10504e-178
2.41606e-178
7.43631e-179
6.07346e-179
5.51147e-179
5.011e-179
3.9131e-179
5.15289e-179
6.57084e-179
1.60051e-177
1.50819e-177
1.63973e-177
2.26539e-177
1.71551e-177
3.22669e-178
2.44381e-179
2.23198e-180
1.11156e-180
1.12049e-180
9.8267e-178
1.00877e-177
1.19565e-177
1.76992e-177
2.11667e-177
1.54461e-178
7.01295e-180
1.14657e-180
1.1878e-180
2.88688e-180
8.64001e-178
9.08217e-178
1.11137e-177
1.39305e-177
1.15662e-177
6.71283e-179
5.00772e-180
1.27899e-180
1.69713e-180
5.10252e-180
6.11066e-178
5.72621e-178
4.25842e-178
2.78426e-178
2.07727e-178
3.11705e-179
6.35595e-180
2.18591e-180
2.23466e-180
6.11582e-180
4.94456e-178
4.763e-178
3.84042e-178
2.04697e-178
9.17819e-179
3.70256e-179
1.91726e-179
1.34305e-179
1.41551e-179
2.44773e-179
2.6239e-178
2.44613e-178
2.91753e-178
3.07925e-178
2.40434e-178
1.17801e-178
6.50448e-179
6.34811e-179
7.93281e-179
1.00596e-178
1.62244e-178
1.44867e-178
1.45124e-178
1.61929e-178
2.9188e-178
3.57134e-178
3.06391e-178
2.5509e-178
1.64254e-178
1.27175e-178
1.52977e-178
1.36457e-178
1.14853e-178
9.0389e-179
1.44277e-178
4.07495e-178
4.78865e-178
2.92729e-178
9.67195e-179
2.85421e-179
1.21292e-178
1.35445e-178
9.27215e-179
5.9701e-179
1.09012e-178
2.16155e-178
3.15384e-178
5.92465e-179
8.90277e-180
3.0266e-180
1.18705e-178
1.1587e-178
4.576e-179
2.92902e-179
9.83046e-179
9.52916e-179
6.89338e-179
6.46956e-180
2.50792e-180
1.83228e-180
1.45643e-177
2.27209e-177
3.14689e-177
2.5485e-177
2.03688e-178
9.14382e-180
3.74454e-180
1.56851e-180
2.31267e-181
7.25866e-182
2.36481e-177
2.44021e-177
2.78828e-177
2.42382e-177
2.52632e-178
3.60807e-180
3.95776e-181
2.25379e-181
1.02844e-181
1.13825e-181
1.58814e-177
1.92697e-177
2.35992e-177
1.58513e-177
1.0912e-178
3.02984e-180
1.96891e-181
1.16711e-181
1.22463e-181
2.55886e-181
1.43141e-177
1.9561e-177
1.90776e-177
6.86903e-178
6.88662e-179
5.63889e-180
5.58517e-181
1.78616e-181
1.66074e-181
2.74853e-181
6.09843e-178
8.92287e-178
9.05679e-178
2.78826e-178
4.86969e-179
1.24375e-179
4.03552e-180
1.56201e-180
8.38333e-181
6.68895e-181
2.13549e-178
2.03246e-178
1.41786e-178
4.45069e-179
1.94289e-179
1.4464e-179
1.16477e-179
9.70407e-180
8.18574e-180
7.43315e-180
1.4854e-178
1.34588e-178
1.02855e-178
5.38062e-179
3.52452e-179
2.33293e-179
1.25521e-179
8.45156e-180
7.27638e-180
8.19762e-180
1.84282e-178
1.99685e-178
1.72922e-178
1.16813e-178
4.41084e-179
1.19791e-179
2.94271e-180
1.5832e-180
1.2474e-180
1.86544e-180
2.06361e-178
2.2385e-178
1.7778e-178
1.55265e-178
1.03984e-178
7.32426e-180
1.89663e-180
1.39347e-180
6.86297e-181
4.00814e-181
1.80934e-178
1.82339e-178
7.26523e-179
5.57243e-179
1.66632e-178
3.28262e-179
3.30133e-180
4.64961e-180
1.6101e-180
3.25144e-181
1.00268e-180
2.11839e-179
2.41813e-178
1.6452e-177
1.11012e-177
1.36589e-179
1.08144e-181
3.59441e-182
2.36962e-182
7.73638e-183
5.89868e-179
1.90497e-178
8.29507e-178
2.41584e-177
9.03769e-178
8.15381e-180
1.04062e-181
1.98858e-182
1.76765e-182
1.52152e-182
1.53761e-178
4.36754e-178
1.42946e-177
2.49634e-177
6.19145e-178
7.67424e-180
2.20788e-181
2.45162e-182
2.12556e-182
4.43051e-182
3.56779e-178
8.0245e-178
1.97497e-177
2.38796e-177
4.87197e-178
1.65907e-179
3.03817e-180
4.28011e-181
7.70254e-182
6.45289e-182
9.55447e-178
1.73253e-177
2.26442e-177
2.08819e-177
3.89579e-178
4.72471e-179
1.8628e-179
6.63271e-180
1.48511e-180
6.34459e-181
1.46619e-177
1.81449e-177
1.92359e-177
1.15527e-177
1.64988e-178
3.31594e-179
1.63601e-179
1.04301e-179
7.13119e-180
4.73818e-180
6.9873e-178
7.43745e-178
6.44578e-178
2.24756e-178
6.68348e-179
4.37072e-179
3.66143e-179
1.79256e-179
7.1788e-180
4.47009e-180
2.14085e-178
2.1374e-178
1.77801e-178
1.19232e-178
7.92524e-179
5.69885e-179
1.21801e-179
1.12924e-180
2.49155e-181
1.50309e-181
2.678e-178
2.78188e-178
1.81168e-178
1.66328e-178
9.61012e-179
1.89107e-179
2.69069e-180
3.17181e-181
1.82815e-181
9.12236e-182
4.47685e-178
2.86949e-178
7.72875e-179
8.19124e-179
1.77555e-178
3.084e-179
1.43951e-180
7.6495e-181
8.56115e-181
1.05396e-181
1.12442e-181
2.80148e-182
1.01165e-180
1.77625e-178
2.38706e-178
3.82529e-180
5.28672e-182
5.30297e-183
3.70929e-183
1.11564e-183
1.10083e-180
8.64321e-181
1.54245e-179
5.28568e-178
2.57012e-178
4.69964e-180
1.39948e-181
4.31683e-183
2.70153e-183
4.97573e-183
3.80194e-180
5.14562e-180
5.94127e-179
7.49535e-178
2.65916e-178
8.21937e-180
8.92089e-181
4.01646e-182
6.55009e-183
7.79677e-183
8.41485e-180
2.24641e-179
2.46478e-178
1.15531e-177
2.46574e-178
2.4354e-179
1.31066e-179
1.62394e-180
3.77138e-181
1.43831e-181
7.98515e-179
2.11638e-178
9.78692e-178
1.56422e-177
2.73017e-178
1.04298e-178
8.51622e-179
2.25569e-179
1.08135e-179
7.42383e-180
6.80436e-178
1.20655e-177
1.62721e-177
1.35476e-177
2.4813e-178
1.29443e-178
1.08224e-178
6.22372e-179
4.79976e-179
2.38706e-179
1.1552e-177
1.31606e-177
1.35756e-177
5.65795e-178
2.22196e-178
2.02131e-178
1.96229e-178
6.23208e-179
1.33325e-179
2.29302e-180
6.15108e-178
6.18883e-178
4.66573e-178
2.6138e-178
2.12641e-178
1.96481e-178
1.18597e-178
1.0211e-179
4.29497e-181
3.24079e-182
3.95414e-178
3.51399e-178
3.07181e-178
2.86192e-178
2.38752e-178
9.59736e-179
1.48461e-179
7.14876e-181
3.79314e-182
1.29228e-182
4.46023e-178
2.84201e-178
1.24027e-178
1.14505e-178
2.30068e-178
1.97922e-178
8.07663e-180
2.1086e-181
9.25078e-182
2.71868e-182
1.8513e-182
3.20805e-183
1.101e-182
1.75192e-180
4.95081e-179
3.34913e-179
4.10515e-181
2.62866e-183
9.10202e-185
2.49828e-185
2.21718e-181
4.14615e-182
2.05452e-181
1.1706e-179
8.36073e-179
3.5553e-179
9.16469e-181
1.1149e-182
3.0927e-184
1.4854e-184
8.86928e-181
6.70241e-181
4.27153e-180
4.96586e-179
1.54791e-178
4.17108e-179
3.78039e-180
2.05168e-181
2.88959e-182
6.89614e-183
5.79894e-180
1.13924e-179
4.18956e-179
1.55567e-178
2.1205e-178
1.18896e-178
8.20114e-179
1.02488e-179
3.21951e-180
1.38196e-180
6.81238e-179
1.24198e-178
2.83604e-178
4.62489e-178
3.76436e-178
4.39276e-178
4.5234e-178
1.67642e-178
1.12169e-178
8.2174e-179
6.67588e-178
9.8703e-178
1.19142e-177
8.44684e-178
5.78454e-178
7.20975e-178
4.93988e-178
1.70579e-178
6.43684e-179
2.506e-179
1.51774e-177
1.45751e-177
1.29343e-177
8.96696e-178
8.54514e-178
9.19033e-178
5.02316e-178
6.87769e-179
4.56572e-180
4.14999e-181
1.37952e-177
1.13081e-177
9.47276e-178
8.24763e-178
8.49627e-178