/*--------------------------------*- C++ -*----------------------------------*\
  =========                 |
  \\      /  F ield         | OpenFOAM: The Open Source CFD Toolbox
   \\    /   O peration     | Website:  https://openfoam.org
    \\  /    A nd           | Version:  9
     \\/     M anipulation  |
\*---------------------------------------------------------------------------*/
FoamFile
{
    format      ascii;
    class       volScalarField;
    location    "1";
    object      d.gas;
}
// * * * * * * * * * * * * * * * * * * * * * * * * * * * * * * * * * * * * * //

dimensions      [0 1 0 0 0 0 0];

internalField   nonuniform List<scalar> 
137980
(
0.00824208
0.00793908
0.00846202
0.00855437
0.00821251
0.00822335
0.00831383
0.00825518
0.00812398
0.0079986
0.00782225
0.00766217
0.00793932
0.0079526
0.00741664
0.00777489
0.00791801
0.00774596
0.00760324
0.00778322
0.00846534
0.00815257
0.00740261
0.00725004
0.00723321
0.00737499
0.00757219
0.0077378
0.00805188
0.00807888
0.00857601
0.00839377
0.00790727
0.00764148
0.00745056
0.00738675
0.00767656
0.0080281
0.00852214
0.00866665
0.00869778
0.00845896
0.00812711
0.00785971
0.00770977
0.00767966
0.00769146
0.00783901
0.00831395
0.0086115
0.00884804
0.00871365
0.00836174
0.00804968
0.00805541
0.00790174
0.0077445
0.00780416
0.00830891
0.00843195
0.008909
0.00859932
0.00802191
0.00817422
0.00819135
0.00800804
0.0077457
0.00785478
0.00832273
0.00830635
0.00867671
0.00817847
0.00818335
0.00848149
0.00837291
0.00824931
0.00755199
0.00756475
0.00821188
0.00835687
0.00861722
0.00829732
0.00852461
0.00872491
0.00863723
0.00869629
0.00854723
0.00749586
0.00784466
0.0085343
0.00848688
0.00835534
0.00869397
0.0089092
0.00885754
0.00886027
0.00896365
0.00863115
0.00803409
0.00846965
0.00938515
0.00915202
0.00915956
0.00923823
0.00923477
0.0092361
0.0092603
0.00925325
0.00925408
0.00931894
0.00915853
0.00911631
0.00903237
0.00901271
0.00904199
0.00910246
0.00908555
0.0090679
0.00913147
0.00923719
0.00924897
0.00921754
0.00902058
0.00891276
0.0089524
0.00899764
0.00900618
0.00903212
0.00908419
0.0091253
0.00928414
0.00925092
0.00915729
0.00901472
0.00901296
0.00901762
0.00906937
0.00911064
0.00916044
0.00921349
0.00930559
0.00927052
0.00918645
0.00906875
0.00908495
0.00909583
0.00912248
0.00916875
0.00922695
0.0092763
0.00932282
0.00928067
0.00920364
0.00912049
0.00915569
0.00916083
0.00917942
0.00919423
0.00924894
0.00927699
0.00928995
0.00922836
0.00911297
0.00917223
0.00918007
0.00917968
0.00916978
0.00920612
0.00927458
0.00927614
0.00919177
0.00915314
0.00916205
0.00920193
0.00918572
0.00922313
0.00915049
0.00913018
0.00920323
0.00927002
0.00920082
0.00918845
0.00923182
0.00924822
0.00922632
0.00923165
0.00929666
0.00919721
0.00919167
0.00924616
0.00929739
0.00932236
0.00933804
0.00931656
0.00927719
0.00925447
0.00931438
0.00927061
0.0092453
0.00927075
0.00955867
0.00955691
0.00951228
0.00951166
0.00952472
0.00954375
0.00955373
0.00955118
0.00953054
0.00953094
0.00953085
0.0094781
0.00947181
0.009472
0.00948076
0.00949969
0.009509
0.00950608
0.00950249
0.00949831
0.00945573
0.00945337
0.00945866
0.00946047
0.00947247
0.0094949
0.00950258
0.00950376
0.00950174
0.00949989
0.0094518
0.0094475
0.00945794
0.00946158
0.00948906
0.00950159
0.00951117
0.00951201
0.00950177
0.00950126
0.00942776
0.00945197
0.00947961
0.00947835
0.00948421
0.00949547
0.0095075
0.00950896
0.00949801
0.00949261
0.00947194
0.00946803
0.00945849
0.00945869
0.00947547
0.00949255
0.00949822
0.00949404
0.00948562
0.00948609
0.00946883
0.00944557
0.00943444
0.00945742
0.00948898
0.00949552
0.00948586
0.00947387
0.0094742
0.00947702
0.00943922
0.00941353
0.00944076
0.00949617
0.00950407
0.00949337
0.00946808
0.00946573
0.00948306
0.00948367
0.00942567
0.00944758
0.0095277
0.00951156
0.00950688
0.00947313
0.00946646
0.00948016
0.00953202
0.0095286
0.00952389
0.00956823
0.00955234
0.0095394
0.009522
0.00946961
0.00948145
0.00953686
0.00960153
0.00960194
0.00963451
0.00962839
0.00961478
0.00960035
0.0095941
0.00959982
0.0095946
0.00954524
0.00953041
0.00953302
0.0096208
0.00962298
0.00961941
0.00961669
0.00962425
0.00958463
0.00953822
0.00951795
0.00952071
0.00952714
0.0096241
0.00963422
0.00963567
0.00963163
0.00953488
0.00950262
0.00950156
0.00950727
0.00951904
0.00952622
0.00961632
0.00962319
0.00960591
0.00950403
0.00948647
0.00948886
0.009498
0.00951743
0.00953475
0.00953646
0.00954836
0.00954024
0.00949978
0.00947606
0.0094795
0.00949187
0.00952123
0.00954941
0.00955597
0.00955317
0.00951032
0.00949572
0.0094617
0.00946633
0.00948387
0.00952411
0.00955696
0.00956343
0.00956187
0.00955539
0.00945812
0.0094316
0.00943773
0.00946996
0.00953358
0.00956516
0.00957001
0.00956687
0.00955815
0.00956542
0.00939435
0.00940281
0.00945783
0.00955482
0.00957154
0.00957563
0.00957025
0.00954824
0.00955759
0.00962002
0.00938845
0.00945401
0.00957756
0.00957994
0.00957259
0.00956519
0.00953606
0.00953221
0.00959413
0.00963453
0.00946372
0.00963877
0.00959051
0.00956551
0.00954901
0.00953198
0.00951163
0.00956633
0.00958595
0.0096089
0.00962321
0.00964175
0.00966523
0.009663
0.00964938
0.00962154
0.00959603
0.00957549
0.00957339
0.00956962
0.0095923
0.00960587
0.00961746
0.00960737
0.00959681
0.00957622
0.00955892
0.00956387
0.00957571
0.00957692
0.00957711
0.00959927
0.00960724
0.00961137
0.00956151
0.00954382
0.00954923
0.00956731
0.00959276
0.00959541
0.0095554
0.00961658
0.00960533
0.00956286
0.00953778
0.00954082
0.00955471
0.0095896
0.00960665
0.0096089
0.0095022
0.00957029
0.00957511
0.00954697
0.00953177
0.00953965
0.00956997
0.00960169
0.00961013
0.0096106
0.00946379
0.00951628
0.00951149
0.00950473
0.00951783
0.00954889
0.00959586
0.00960895
0.009608
0.00961479
0.00941314
0.00943827
0.00945436
0.00949282
0.00955375
0.00960182
0.00961401
0.00960812
0.00960508
0.00964236
0.00940427
0.00942021
0.00948602
0.00960706
0.00961895
0.00962419
0.00961657
0.00959329
0.00961647
0.00966889
0.00941949
0.00951428
0.00967806
0.00965762
0.00962432
0.00961034
0.00958458
0.00959472
0.00963084
0.00967839
0.00945916
0.00976586
0.00972707
0.00963334
0.00959095
0.00958534
0.00958575
0.00960494
0.00963887
0.00968088
0.00991141
0.00990183
0.00988236
0.00982523
0.00969875
0.00963216
0.00960936
0.00959866
0.00959743
0.00959726
0.00990628
0.00988439
0.00982299
0.00969847
0.00963147
0.00960545
0.00959362
0.0095916
0.00959948
0.0096132
0.00988639
0.00985669
0.00975883
0.00965873
0.00961472
0.00959027
0.00958417
0.00958824
0.00960038
0.00962634
0.00986018
0.00981242
0.0097137
0.00964007
0.00959872
0.0095839
0.00958012
0.00958374
0.009598
0.00963069
0.0097597
0.00969281
0.00963007
0.00958506
0.00956345
0.00956139
0.00956655
0.00957707
0.00960125
0.00964928
0.00951045
0.00951137
0.00951554
0.0095201
0.00952696
0.00954416
0.00956046
0.00958299
0.00963321
0.00968688
0.00947088
0.00948058
0.00949366
0.00950696
0.00952706
0.00955597
0.00958162
0.00963266
0.00969818
0.00973885
0.00950852
0.00951696
0.00953518
0.00956172
0.00959918
0.0096315
0.00967676
0.00972907
0.00975718
0.00977473
0.00959377
0.00960762
0.00964398
0.00969299
0.00971856
0.00974652
0.00976816
0.00977924
0.00978683
0.00979029
0.00976694
0.00984499
0.00985482
0.00983593
0.00980318
0.00981148
0.00981397
0.00980556
0.0097984
0.00979501
0.00990348
0.00990605
0.00991397
0.00994275
0.00994263
0.0098946
0.00973991
0.00965041
0.00964155
0.00963936
0.00994117
0.00992312
0.00992716
0.00994708
0.00994186
0.00988576
0.00974711
0.00966814
0.00965551
0.00965305
0.0100279
0.00998543
0.00998065
0.00997725
0.00995083
0.00986049
0.00974811
0.00968671
0.00967785
0.00968369
0.0100341
0.0100238
0.0100151
0.00999647
0.00994436
0.00985938
0.0097905
0.00974415
0.00972813
0.00972794
0.0100269
0.0100276
0.0100214
0.0100067
0.0099716
0.00990625
0.00984039
0.00979554
0.00977462
0.00976634
0.00995286
0.0099657
0.00996043
0.00994227
0.0098964
0.00984632
0.00981358
0.00979486
0.00978529
0.00978026
0.00977985
0.00980741
0.00981311
0.00980499
0.00979013
0.00978203
0.00978162
0.00978213
0.00978552
0.00978824
0.00970855
0.00972947
0.00973953
0.00974299
0.00975131
0.00975912
0.00977381
0.00978329
0.00980491
0.00981189
0.00970824
0.00971961
0.00973063
0.00975049
0.00977639
0.00979885
0.00982455
0.00983894
0.00986199
0.00986392
0.00975256
0.00976548
0.00981611
0.0098734
0.0099028
0.00990913
0.00990392
0.00991062
0.00992438
0.00993114
0.0100459
0.0100796
0.0101297
0.0101268
0.010096
0.00997052
0.0098241
0.00979368
0.00979197
0.00976495
0.0100588
0.0100707
0.0101079
0.0101183
0.0101085
0.0100286
0.0098635
0.00980996
0.00982634
0.00980304
0.0100971
0.0100813
0.0100936
0.0101162
0.0101121
0.0100475
0.00989569
0.00984755
0.00984925
0.00987107
0.0101217
0.0101042
0.0101088
0.0101263
0.0101211
0.0100531
0.00993371
0.00990911
0.00992024
0.00995196
0.0101667
0.010155
0.0101533
0.0101518
0.0101323
0.0100477
0.00998527
0.00998639
0.0100023
0.00999581
0.0101406
0.0101671
0.0101685
0.0101621
0.0101387
0.0100802
0.0100581
0.0100548
0.0100343
0.0099923
0.0100546
0.010129
0.0101534
0.0101531
0.0101436
0.0101291
0.010104
0.0100806
0.0100294
0.00998499
0.00995005
0.0100167
0.0100774
0.010111
0.0101175
0.0101136
0.0101031
0.0100786
0.0100184
0.00998491
0.00990335
0.00993739
0.00997394
0.0100061
0.0100319
0.0100485
0.0100468
0.0100361
0.0100046
0.00998584
0.00989004
0.00990556
0.00992255
0.00994334
0.00996019
0.00997949
0.00999374
0.0099932
0.00998698
0.00998461
0.0101904
0.0102206
0.0102453
0.0102485
0.0102247
0.0101928
0.01017
0.0101523
0.0100894
0.0100443
0.0101764
0.0102027
0.0102461
0.0102549
0.0102357
0.0102115
0.0101986
0.0102016
0.0101898
0.0101415
0.0101827
0.0102029
0.0102445
0.0102577
0.0102413
0.0102245
0.010219
0.0102263
0.0102193
0.0101911
0.0101986
0.0102217
0.0102549
0.0102595
0.0102506
0.010246
0.0102511
0.0102514
0.0102319
0.0102071
0.0102249
0.0102456
0.0102576
0.0102595
0.010259
0.0102625
0.010264
0.0102572
0.0102282
0.0102008
0.0102115
0.0102322
0.0102448
0.0102523
0.010258
0.0102636
0.0102626
0.0102438
0.0102026
0.0101661
0.0101553
0.0101912
0.0102095
0.0102221
0.0102333
0.0102441
0.0102448
0.0102203
0.0101762
0.010131
0.0100634
0.0101152
0.0101609
0.0101874
0.0101999
0.0102162
0.0102235
0.0101939
0.0101496
0.010113
0.0100157
0.0100502
0.0100904
0.0101338
0.0101645
0.0101856
0.0102046
0.010166
0.0101316
0.0101022
0.00998283
0.01001
0.0100362
0.0100726
0.0101191
0.0101605
0.0101803
0.0101475
0.0101263
0.0101108
0.0101605
0.0102275
0.0102583
0.0102951
0.0103055
0.010304
0.0103072
0.0103085
0.0102977
0.0102725
0.0101721
0.0102268
0.0102762
0.0103073
0.010313
0.0103117
0.0103153
0.0103186
0.010308
0.0102845
0.0101984
0.0102279
0.0102776
0.0103043
0.0103139
0.0103167
0.0103231
0.0103253
0.0103144
0.010291
0.0102328
0.0102486
0.0102825
0.0103015
0.0103127
0.0103195
0.0103274
0.0103276
0.0103153
0.0102913
0.0102298
0.0102552
0.0102795
0.0102947
0.0103077
0.0103177
0.0103262
0.0103241
0.0103113
0.010286
0.0101484
0.010209
0.0102474
0.0102707
0.0102886
0.0103022
0.0103144
0.0103143
0.0103034
0.0102738
0.0100724
0.010114
0.0101602
0.0102016
0.0102358
0.0102625
0.0102888
0.010298
0.0102904
0.0102566
0.0100389
0.0100662
0.0100971
0.0101368
0.0101769
0.0102104
0.0102488
0.010274
0.0102724
0.0102377
0.0100017
0.010029
0.0100542
0.0100795
0.0101187
0.0101518
0.0101939
0.0102412
0.010254
0.0102247
0.00999772
0.0100245
0.010052
0.0100716
0.0101006
0.0101272
0.0101548
0.010201
0.0102295
0.010218
0.0101538
0.0101861
0.0102374
0.0102918
0.0103259
0.010339
0.0103396
0.010335
0.010322
0.0103023
0.0101983
0.0102437
0.0102977
0.0103333
0.010351
0.010357
0.0103556
0.010349
0.0103348
0.0103083
0.0102522
0.0102919
0.0103265
0.0103484
0.0103599
0.0103634
0.0103611
0.0103531
0.010338
0.0103108
0.010264
0.0103007
0.0103286
0.0103447
0.0103543
0.0103588
0.0103566
0.0103482
0.010334
0.0103073
0.0102119
0.0102604
0.0102925
0.0103132
0.0103275
0.0103382
0.0103386
0.010334
0.0103231
0.010301
0.0101386
0.0101924
0.0102349
0.0102657
0.0102876
0.0103046
0.0103135
0.0103133
0.010307
0.0102907
0.0100767
0.0101274
0.0101756
0.0102161
0.0102465
0.010269
0.0102839
0.0102894
0.010287
0.0102723
0.0100473
0.0100933
0.0101375
0.0101782
0.0102159
0.0102461
0.0102638
0.0102703
0.0102681
0.0102497
0.0100561
0.0100985
0.0101394
0.0101765
0.0102104
0.0102388
0.0102535
0.0102571
0.0102511
0.0102219
0.0100984
0.0101311
0.0101606
0.0101872
0.0102114
0.0102306
0.0102396
0.0102412
0.0102307
0.0101934
0.0101587
0.0101986
0.010248
0.0102895
0.0103168
0.0103331
0.010337
0.0103333
0.0103211
0.0103017
0.0102323
0.0102684
0.0103062
0.0103357
0.0103544
0.0103649
0.0103657
0.01036
0.0103456
0.0103152
0.010267
0.010306
0.0103353
0.0103556
0.0103689
0.0103771
0.0103778
0.0103719
0.0103559
0.0103195
0.0102756
0.0103116
0.0103385
0.0103563
0.0103679
0.0103767
0.0103804
0.0103754
0.0103586
0.0103168
0.0102525
0.0102906
0.0103181
0.0103384
0.0103531
0.0103661
0.010374
0.0103716
0.0103551
0.0103107
0.0102197
0.0102581
0.0102892
0.0103152
0.010335
0.0103503
0.0103596
0.0103599
0.0103476
0.0103076
0.0101905
0.0102331
0.0102641
0.0102903
0.0103131
0.0103299
0.0103403
0.0103422
0.0103332
0.0103007
0.0101788
0.0102199
0.0102443
0.0102671
0.010289
0.0103049
0.010315
0.0103177
0.0103099
0.0102818
0.0101775
0.0102043
0.0102223
0.0102433
0.0102611
0.0102722
0.0102815
0.0102862
0.0102777
0.0102427
0.010169
0.0101757
0.0101949
0.0102107
0.0102197
0.0102238
0.0102318
0.0102463
0.0102418
0.0102173
0.010101
0.0101254
0.0101686
0.0101983
0.010226
0.010251
0.0102701
0.0102768
0.0102718
0.0102511
0.0101942
0.0102117
0.0102401
0.0102675
0.0102955
0.0103208
0.01033
0.010327
0.0103103
0.0102606
0.0102392
0.0102735
0.0103023
0.0103287
0.0103517
0.0103648
0.0103644
0.010356
0.0103298
0.0102637
0.0102518
0.0102929
0.0103276
0.0103536
0.010372
0.0103805
0.0103787
0.010369
0.0103409
0.0102673
0.0102447
0.0102867
0.0103239
0.0103515
0.0103707
0.010381
0.0103802
0.0103722
0.0103465
0.0102784
0.0102182
0.0102581
0.0102971
0.0103274
0.0103492
0.0103636
0.0103669
0.0103629
0.0103453
0.0102935
0.0101875
0.0102266
0.0102655
0.0102958
0.0103185
0.0103341
0.0103421
0.0103433
0.0103335
0.0102989
0.0101527
0.0101939
0.0102314
0.010259
0.0102796
0.0102939
0.0103034
0.0103113
0.0103088
0.0102893
0.0101182
0.0101633
0.010195
0.0102168
0.010232
0.0102415
0.0102495
0.0102626
0.0102703
0.0102639
0.0100894
0.0101321
0.0101544
0.0101681
0.0101757
0.0101759
0.010179
0.0101925
0.010215
0.0102244
0.00997175
0.0100272
0.0100718
0.0101082
0.0101539
0.0101974
0.0102108
0.0102055
0.0101738
0.0100879
0.0100635
0.0101142
0.0101564
0.0101949
0.0102364
0.010261
0.0102614
0.010247
0.0101915
0.0100777
0.0101057
0.0101581
0.0102071
0.0102516
0.0102853
0.0102995
0.0102958
0.0102759
0.0102154
0.0101074
0.0101451
0.0102027
0.0102499
0.0102849
0.0103087
0.0103175
0.0103127
0.0102938
0.0102417
0.0101466
0.0101618
0.0102181
0.0102601
0.0102908
0.0103117
0.0103204
0.0103167
0.010301
0.0102609
0.0101803
0.0101506
0.0102022
0.0102412
0.0102703
0.0102899
0.0103017
0.0103015
0.0102926
0.010266
0.0102018
0.0101176
0.0101672
0.0102045
0.010232
0.0102505
0.0102621
0.0102665
0.0102651
0.0102505
0.0102046
0.0100763
0.0101263
0.0101602
0.0101832
0.0101974
0.0102041
0.0102104
0.0102178
0.0102164
0.010191
0.0100309
0.0100801
0.010108
0.010125
0.0101318
0.010131
0.0101334
0.0101452
0.0101624
0.0101553
0.00998304
0.0100294
0.0100503
0.0100598
0.0100553
0.0100419
0.0100378
0.0100496
0.0100867
0.0100982
0.00972965
0.00980792
0.00986251
0.00992197
0.00998023
0.010005
0.0100027
0.00998236
0.00992189
0.00980325
0.00983478
0.00990281
0.00996349
0.0100205
0.0100612
0.0100734
0.0100648
0.0100282
0.00993512
0.00979884
0.00985942
0.00994856
0.0100248
0.0100809
0.0101155
0.010121
0.0101062
0.0100597
0.0099615
0.00982997
0.00988832
0.00998827
0.0100594
0.0101096
0.0101389
0.0101419
0.0101257
0.0100794
0.00998374
0.00986232
0.00991742
0.0100042
0.0100685
0.0101152
0.0101419
0.0101447
0.0101302
0.0100879
0.010002
0.00988611
0.00992387
0.00999671
0.0100519
0.0100929
0.0101162
0.0101205
0.0101113
0.010083
0.0100116
0.00989857
0.0098976
0.00995906
0.0100099
0.0100453
0.0100642
0.0100687
0.0100642
0.0100505
0.0100048
0.00989986
0.00984922
0.00990894
0.00995315
0.00997814
0.0099887
0.00998953
0.00998794
0.00998861
0.00997076
0.00989092
0.00978805
0.00984633
0.00988033
0.00989524
0.00989682
0.0098905
0.00988562
0.00989302
0.00990218
0.00985594
0.00971757
0.00977288
0.00979666
0.00980354
0.00979612
0.00977724
0.00975916
0.00975846
0.00978217
0.00976556
0.00954441
0.00963549
0.0097115
0.00977727
0.00981302
0.00981386
0.00979218
0.00973624
0.00964937
0.00952902
0.00962786
0.00971291
0.00979403
0.00985143
0.0098797
0.00987739
0.0098445
0.00977366
0.00967084
0.00954028
0.00965167
0.00976195
0.00984666
0.00989779
0.00992085
0.00991648
0.00987888
0.00980454
0.00969974
0.009577
0.00968588
0.00979558
0.0098691
0.00991632
0.0099375
0.0099336
0.00989836
0.00982918
0.00972892
0.00961773
0.00970444
0.00980487
0.00987164
0.0099174
0.00993831
0.00993643
0.00990502
0.00984226
0.0097499
0.00964176
0.00970066
0.00978315
0.00984057
0.00988769
0.00991251
0.0099161
0.00989516
0.00984455
0.00975692
0.00964897
0.009662
0.00972774
0.0097852
0.00983453
0.00986264
0.00986912
0.00985663
0.00982292
0.00974802
0.00963936
0.00959712
0.00965811
0.00971586
0.00976213
0.00978756
0.00979353
0.00978274
0.00976219
0.00971549
0.0096192
0.00951426
0.00957743
0.00963367
0.00967406
0.00969237
0.0096934
0.00967521
0.00965223
0.00962802
0.0095654
0.00941416
0.00948501
0.00953912
0.00957192
0.00958473
0.00957826
0.00954837
0.00950926
0.00947485
0.00943538
0.0095082
0.00960158
0.00968405
0.00973871
0.00975962
0.00975038
0.00970901
0.00963922
0.00954963
0.0094386
0.00957549
0.00967195
0.00975722
0.00980529
0.00982151
0.00980959
0.0097626
0.00968907
0.0095977
0.00948618
0.00961214
0.00972712
0.00980598
0.00984781
0.00986149
0.00984995
0.00980293
0.0097293
0.00963855
0.00953029
0.00964845
0.00975511
0.00982517
0.00986573
0.00988004
0.00987168
0.00982992
0.00976141
0.00967318
0.00957225
0.00966105
0.00976104
0.00982576
0.00986773
0.00988415
0.00987875
0.00984117
0.00977768
0.00969259
0.00959227
0.00964745
0.00973306
0.0097887
0.00984025
0.00986564
0.00986802
0.00983828
0.00977958
0.00969581
0.00959442
0.00960115
0.00967156
0.00972691
0.00978705
0.009823
0.00983001
0.00980812
0.00975814
0.009681
0.00957814
0.00953176
0.00959258
0.00965308
0.00971707
0.00975442
0.00976228
0.00974119
0.00969898
0.0096392
0.0095488
0.00944022
0.00950337
0.00957198
0.00963308
0.00966205
0.00966563
0.00963708
0.00959149
0.00954275
0.00947919
0.00932828
0.00940485
0.00947944
0.00953143
0.00955361
0.00955178
0.00951518
0.00945771
0.00939936
0.00935231
0.00997014
0.00999802
0.0100242
0.0100402
0.0100466
0.0100482
0.0100442
0.0100244
0.00998876
0.00994353
0.00999578
0.0100336
0.0100606
0.0100722
0.0100747
0.0100751
0.0100702
0.0100493
0.0100165
0.00997373
0.010011
0.0100547
0.010078
0.0100889
0.010093
0.0100929
0.0100844
0.0100643
0.0100351
0.00999926
0.0100237
0.0100649
0.0100857
0.0100961
0.0101004
0.0101001
0.0100911
0.0100744
0.0100512
0.0100255
0.0100273
0.0100675
0.0100865
0.0100969
0.0101016
0.0101017
0.0100941
0.0100816
0.0100627
0.0100379
0.0100206
0.0100576
0.0100729
0.0100879
0.0100977
0.0100993
0.0100942
0.010083
0.0100638
0.0100382
0.00999786
0.0100325
0.0100446
0.0100668
0.0100878
0.0100921
0.0100888
0.0100772
0.0100572
0.0100277
0.00995704
0.00999733
0.0100061
0.0100385
0.0100705
0.0100793
0.0100761
0.0100633
0.010043
0.0100101
0.00990604
0.00994719
0.00996427
0.0100089
0.010045
0.0100556
0.010052
0.0100372
0.0100173
0.00998724
0.0098506
0.00988433
0.00993262
0.00997919
0.0100123
0.0100238
0.0100226
0.0100082
0.00998511
0.00996273
0.0102964
0.0102982
0.0102986
0.0103012
0.0103148
0.0103274
0.0103307
0.0103244
0.0103157
0.0103052
0.010304
0.0103144
0.0103218
0.0103228
0.0103314
0.0103423
0.0103426
0.0103357
0.010326
0.010313
0.0103074
0.0103251
0.0103349
0.010341
0.010349
0.0103527
0.0103506
0.010343
0.0103334
0.0103239
0.0103137
0.0103339
0.0103445
0.0103524
0.0103579
0.0103593
0.0103571
0.0103507
0.0103427
0.0103362
0.0103173
0.0103377
0.0103479
0.0103549
0.0103589
0.0103602
0.0103599
0.0103566
0.0103502
0.0103429
0.0103176
0.0103378
0.010347
0.0103534
0.0103567
0.0103582
0.0103586
0.0103563
0.0103499
0.0103423
0.0103116
0.0103302
0.0103371
0.0103459
0.010351
0.0103519
0.0103517
0.0103492
0.0103431
0.0103354
0.0102969
0.0103161
0.0103196
0.0103318
0.0103429
0.0103457
0.0103442
0.0103418
0.0103368
0.0103286
0.010274
0.0102941
0.010301
0.0103169
0.0103313
0.0103383
0.0103376
0.0103352
0.0103309
0.0103224
0.0102504
0.0102662
0.0102909
0.0103074
0.0103207
0.0103293
0.0103288
0.0103251
0.0103209
0.0103153
0.0104466
0.0104459
0.0104427
0.0104426
0.0104599
0.0104665
0.0104659
0.0104637
0.0104621
0.0104582
0.0104474
0.0104509
0.0104524
0.0104515
0.0104682
0.0104748
0.0104743
0.0104718
0.0104685
0.0104614
0.0104447
0.0104519
0.0104571
0.0104641
0.0104783
0.0104815
0.0104801
0.0104762
0.010471
0.0104636
0.0104469
0.0104581
0.0104656
0.0104754
0.010484
0.0104859
0.0104843
0.0104794
0.0104732
0.0104663
0.0104541
0.0104648
0.0104726
0.0104804
0.0104849
0.0104862
0.0104858
0.0104825
0.0104771
0.0104713
0.0104568
0.0104678
0.0104752
0.0104807
0.0104835
0.0104847
0.0104847
0.010482
0.0104775
0.0104725
0.0104563
0.0104666
0.0104719
0.0104761
0.0104783
0.0104794
0.0104794
0.0104774
0.0104732
0.0104679
0.0104516
0.0104591
0.010463
0.0104683
0.0104715
0.0104731
0.0104736
0.010473
0.0104703
0.0104648
0.0104411
0.0104448
0.0104499
0.0104574
0.010464
0.0104671
0.0104685
0.0104688
0.0104679
0.0104631
0.0104234
0.0104287
0.0104413
0.0104488
0.0104542
0.0104609
0.0104618
0.0104612
0.0104607
0.0104588
0.0105174
0.0105197
0.0105198
0.0105176
0.0105238
0.0105311
0.0105306
0.0105275
0.010526
0.0105231
0.0105185
0.0105229
0.0105236
0.0105227
0.0105319
0.0105377
0.0105376
0.0105349
0.0105322
0.0105262
0.0105179
0.010523
0.0105257
0.0105278
0.0105382
0.0105428
0.0105426
0.0105393
0.0105349
0.0105277
0.010516
0.0105224
0.0105271
0.0105325
0.0105424
0.010546
0.010546
0.010543
0.0105376
0.0105303
0.0105138
0.0105225
0.0105291
0.0105366
0.0105439
0.0105462
0.0105464
0.0105444
0.0105402
0.0105338
0.0105156
0.0105251
0.0105328
0.0105394
0.0105438
0.0105455
0.0105457
0.0105438
0.01054
0.0105344
0.0105204
0.0105282
0.010534
0.0105386
0.0105415
0.0105428
0.0105431
0.0105418
0.0105384
0.010533
0.0105196
0.0105248
0.0105292
0.0105325
0.0105349
0.0105377
0.010539
0.0105387
0.0105355
0.0105296
0.0105108
0.0105144
0.01052
0.0105243
0.0105277
0.010532
0.0105342
0.0105341
0.0105321
0.0105274
0.0104957
0.0105028
0.0105099
0.0105149
0.0105186
0.0105247
0.0105275
0.0105271
0.010526
0.0105241
0.0105533
0.0105563
0.0105591
0.0105608
0.0105637
0.010567
0.0105662
0.0105629
0.0105605
0.0105575
0.010555
0.0105594
0.0105624
0.0105636
0.0105672
0.0105706
0.0105706
0.0105682
0.0105653
0.0105607
0.0105552
0.0105605
0.0105641
0.0105657
0.0105701
0.0105735
0.0105738
0.0105719
0.0105686
0.0105635
0.0105552
0.0105607
0.0105644
0.0105669
0.010572
0.0105751
0.0105756
0.0105745
0.0105717
0.0105676
0.0105546
0.01056
0.0105637
0.0105676
0.0105726
0.0105749
0.0105754
0.0105748
0.0105727
0.0105694
0.0105519
0.0105579
0.0105632
0.0105682
0.0105723
0.0105741
0.0105747
0.0105741
0.0105722
0.0105692
0.0105519
0.0105583
0.0105636
0.0105681
0.010571
0.0105724
0.010573
0.0105729
0.0105712
0.0105679
0.0105525
0.0105576
0.010562
0.0105649
0.0105666
0.0105686
0.0105704
0.0105706
0.0105685
0.0105646
0.0105469
0.0105516
0.0105556
0.0105582
0.0105605
0.0105643
0.010567
0.0105672
0.0105651
0.0105618
0.010537
0.0105425
0.0105471
0.0105513
0.0105541
0.0105583
0.0105628
0.0105626
0.0105604
0.0105584
0.0105706
0.0105732
0.0105759
0.0105783
0.0105804
0.0105817
0.0105811
0.0105792
0.0105771
0.0105747
0.0105714
0.0105747
0.0105775
0.0105799
0.010582
0.0105836
0.0105836
0.0105823
0.0105803
0.0105773
0.0105717
0.0105754
0.0105786
0.0105811
0.0105834
0.0105852
0.0105854
0.0105845
0.0105827
0.0105798
0.0105717
0.0105755
0.010579
0.0105817
0.0105843
0.010586
0.0105865
0.010586
0.0105845
0.0105823
0.0105712
0.0105752
0.0105787
0.0105816
0.0105843
0.0105858
0.0105863
0.0105861
0.010585
0.0105834
0.0105692
0.0105736
0.0105776
0.0105812
0.0105838
0.0105851
0.0105856
0.0105855
0.0105846
0.010583
0.0105681
0.0105726
0.0105769
0.0105803
0.0105823
0.0105833
0.0105842
0.0105843
0.0105834
0.0105816
0.0105678
0.0105716
0.0105755
0.0105779
0.010579
0.0105803
0.010582
0.0105824
0.0105815
0.0105795
0.0105623
0.0105671
0.0105709
0.0105731
0.0105747
0.0105768
0.0105793
0.01058
0.0105791
0.0105773
0.0105586
0.0105623
0.0105657
0.0105686
0.0105709
0.0105731
0.0105764
0.0105772
0.0105762
0.0105747
0.0105718
0.0105744
0.0105765
0.0105787
0.0105809
0.0105822
0.0105816
0.01058
0.0105784
0.0105764
0.0105722
0.0105755
0.010578
0.0105803
0.0105826
0.010584
0.0105839
0.0105829
0.0105813
0.0105786
0.0105721
0.0105757
0.0105788
0.0105815
0.0105839
0.0105855
0.0105857
0.0105849
0.0105833
0.0105805
0.0105717
0.0105755
0.0105792
0.0105824
0.0105849
0.0105863
0.0105867
0.0105862
0.0105848
0.0105827
0.010571
0.0105753
0.0105794
0.0105826
0.010585
0.0105864
0.0105868
0.0105866
0.0105856
0.0105839
0.01057
0.0105746
0.010579
0.0105822
0.0105844
0.0105856
0.0105861
0.010586
0.010585
0.0105834
0.0105692
0.0105737
0.0105774
0.0105809
0.0105827
0.0105839
0.0105845
0.0105845
0.0105836
0.0105818
0.0105672
0.0105718
0.0105754
0.0105781
0.0105796
0.0105812
0.0105823
0.0105826
0.0105818
0.01058
0.0105631
0.0105675
0.0105711
0.0105739
0.0105759
0.0105777
0.0105797
0.0105801
0.0105797
0.0105783
0.0105606
0.0105641
0.0105675
0.0105702
0.0105728
0.0105748
0.010577
0.0105773
0.0105768
0.010576
0.00229645
0.00227466
0.00228109
0.00227996
0.00224287
0.00224289
0.00228002
0.00228116
0.00227475
0.00229655
0.00227469
0.00224093
0.002231
0.00222659
0.00222007
0.00222006
0.00222661
0.00223106
0.00224094
0.00227471
0.00228115
0.002231
0.00221849
0.00221436
0.00221244
0.00221248
0.00221436
0.00221836
0.00223092
0.00228117
0.00228001
0.00222659
0.00221436
0.00221049
0.00220902
0.00220887
0.00221033
0.0022142
0.00222648
0.00228002
0.00224289
0.00222006
0.00221247
0.00220888
0.00220738
0.00220736
0.00220883
0.00221227
0.00221993
0.00224282
0.00224293
0.00221999
0.00221228
0.00220882
0.00220736
0.00220736
0.00220883
0.00221227
0.00221991
0.00224265
0.00228
0.00222647
0.0022142
0.0022103
0.00220882
0.00220881
0.00221027
0.00221397
0.00222597
0.00227873
0.00228118
0.00223091
0.00221835
0.00221417
0.00221223
0.00221193
0.00221373
0.00221675
0.00222958
0.00228012
0.00227474
0.00224087
0.00223089
0.00222611
0.00221949
0.00221834
0.002225
0.00222967
0.0022397
0.0022737
0.00229657
0.00227444
0.00228083
0.00227882
0.0022413
0.00224162
0.00227896
0.00228011
0.0022737
0.00229558
0.00221941
0.00221152
0.00221132
0.00221034
0.00220299
0.002203
0.00221036
0.00221133
0.00221154
0.00221944
0.00221153
0.00220223
0.00219875
0.00219698
0.00219535
0.00219535
0.00219699
0.00219877
0.00220223
0.00221154
0.00221133
0.00219875
0.00219447
0.00219256
0.00219169
0.00219171
0.00219256
0.00219443
0.00219873
0.00221134
0.00221035
0.00219698
0.00219256
0.00219056
0.00218968
0.00218962
0.0021905
0.00219251
0.00219695
0.00221036
0.002203
0.00219534
0.00219171
0.00218963
0.0021887
0.00218869
0.00218961
0.00219163
0.00219531
0.00220298
0.00220301
0.00219532
0.00219163
0.00218961
0.00218869
0.00218869
0.00218961
0.00219164
0.00219531
0.00220302
0.00221035
0.00219694
0.00219251
0.00219049
0.00218961
0.00218962
0.0021905
0.00219257
0.00219709
0.00221116
0.00221134
0.00219872
0.00219442
0.00219252
0.00219165
0.00219174
0.00219265
0.00219538
0.00219958
0.00221206
0.00221155
0.00220223
0.00219873
0.00219706
0.00219544
0.00219626
0.00219786
0.00219955
0.00220304
0.00221227
0.00221945
0.00221164
0.00221144
0.00221112
0.00220391
0.00220379
0.00221108
0.00221206
0.00221227
0.00222014
0.00218318
0.00218057
0.00217984
0.00217924
0.0021779
0.0021779
0.00217924
0.00217985
0.00218058
0.00218319
0.00218057
0.00217765
0.00217624
0.00217543
0.00217495
0.00217495
0.00217543
0.00217624
0.00217765
0.00218064
0.00217985
0.00217624
0.00217453
0.00217358
0.00217314
0.00217314
0.00217358
0.00217457
0.00217628
0.0021799
0.00217924
0.00217543
0.00217358
0.00217252
0.00217203
0.00217205
0.00217255
0.00217361
0.00217547
0.00217929
0.00217789
0.00217495
0.00217314
0.00217205
0.00217153
0.00217153
0.00217205
0.00217316
0.00217498
0.00217795
0.00217789
0.00217498
0.00217316
0.00217205
0.00217153
0.00217153
0.00217206
0.00217317
0.00217499
0.00217796
0.00217929
0.00217547
0.00217361
0.00217255
0.00217206
0.00217206
0.00217256
0.00217362
0.00217547
0.00217928
0.0021799
0.00217628
0.00217457
0.00217362
0.00217317
0.00217317
0.00217362
0.00217456
0.00217624
0.00217985
0.00218064
0.00217771
0.00217629
0.00217547
0.00217499
0.00217497
0.00217545
0.00217623
0.00217765
0.00218058
0.00218326
0.00218064
0.00217991
0.00217926
0.00217793
0.00217789
0.00217924
0.00217985
0.00218058
0.0021832
0.00215972
0.00215889
0.00215848
0.00215821
0.00215795
0.00215795
0.00215821
0.00215849
0.00215889
0.00215972
0.00215889
0.00215788
0.00215726
0.00215688
0.00215669
0.00215669
0.00215689
0.00215726
0.00215788
0.00215896
0.00215848
0.00215726
0.00215651
0.00215604
0.00215582
0.00215582
0.00215604
0.00215656
0.00215732
0.00215855
0.00215821
0.00215688
0.00215604
0.00215551
0.00215526
0.0021553
0.00215556
0.00215609
0.00215694
0.00215827
0.00215795
0.00215669
0.00215582
0.0021553
0.00215503
0.00215503
0.00215531
0.00215587
0.00215675
0.00215801
0.00215795
0.00215674
0.00215587
0.00215531
0.00215503
0.00215503
0.00215531
0.00215587
0.00215675
0.00215802
0.00215827
0.00215694
0.00215609
0.00215556
0.00215531
0.00215531
0.00215556
0.00215609
0.00215692
0.00215825
0.00215855
0.00215732
0.00215656
0.0021561
0.00215587
0.00215586
0.00215608
0.00215654
0.0021573
0.00215854
0.00215896
0.00215795
0.00215733
0.00215693
0.00215673
0.00215672
0.00215692
0.0021573
0.00215793
0.00215894
0.0021598
0.00215895
0.00215854
0.00215825
0.00215799
0.002158
0.00215826
0.00215854
0.00215895
0.00215979
0.00214257
0.00214227
0.00214208
0.00214196
0.00214188
0.00214188
0.00214196
0.00214208
0.00214227
0.00214257
0.00214227
0.00214187
0.00214159
0.00214142
0.00214133
0.00214133
0.00214142
0.00214159
0.00214187
0.00214232