/*--------------------------------*- C++ -*----------------------------------*\
  =========                 |
  \\      /  F ield         | OpenFOAM: The Open Source CFD Toolbox
   \\    /   O peration     | Website:  https://openfoam.org
    \\  /    A nd           | Version:  9
     \\/     M anipulation  |
\*---------------------------------------------------------------------------*/
FoamFile
{
    format      ascii;
    class       volScalarField;
    location    "1";
    object      f10.gas;
}
// * * * * * * * * * * * * * * * * * * * * * * * * * * * * * * * * * * * * * //

dimensions      [0 0 0 0 0 0 0];

internalField   nonuniform List<scalar> 
137980
(
0.0224081
0.024163
0.0234604
0.0226442
0.0226377
0.0227106
0.0228324
0.0230462
0.0231881
0.0237902
0.0246726
0.024012
0.023838
0.022979
0.0218493
0.0220172
0.022318
0.0225399
0.0230155
0.0241232
0.0236079
0.0231901
0.022044
0.0218928
0.0217947
0.0221117
0.0221366
0.0222426
0.0229474
0.023335
0.0225078
0.0210743
0.0210499
0.0213261
0.0215191
0.0220315
0.0219356
0.0214976
0.0212545
0.0211884
0.0204033
0.0200233
0.0204492
0.0207173
0.0210833
0.0218235
0.0217834
0.0210914
0.0202624
0.020143
0.0198503
0.0201764
0.0205369
0.0204002
0.0210862
0.0216
0.0214398
0.0205685
0.0198809
0.0209186
0.0202575
0.0210701
0.0209892
0.02076
0.0208784
0.0210554
0.0212251
0.0207676
0.020614
0.0227418
0.0217545
0.0221349
0.021443
0.0207434
0.019862
0.0200467
0.0211047
0.0213381
0.0217622
0.0233103
0.0217897
0.0222487
0.0214683
0.0199609
0.0187748
0.0191806
0.020175
0.0215541
0.0221449
0.0226229
0.0222972
0.0226527
0.0211722
0.0198365
0.0186105
0.0188702
0.0195337
0.0208803
0.0217452
0.0224504
0.0170172
0.0176842
0.0177116
0.0176466
0.0175789
0.0176608
0.0177552
0.0181484
0.0184138
0.0179334
0.0181912
0.0180169
0.0179776
0.0179196
0.0181538
0.0185724
0.0190784
0.0193443
0.019277
0.018637
0.0181736
0.0180691
0.0181191
0.0181084
0.018181
0.0186717
0.0191834
0.0194031
0.0193447
0.0190344
0.0175758
0.0178408
0.0180463
0.0180364
0.0181025
0.0185295
0.0188711
0.0190114
0.0189722
0.0186817
0.017248
0.0175621
0.0179011
0.0178933
0.0179412
0.0182619
0.0184382
0.018497
0.0185103
0.0184409
0.0171595
0.0176297
0.0179156
0.0178521
0.017851
0.0179742
0.0180917
0.0180968
0.0181555
0.0182847
0.0176243
0.018159
0.0180266
0.0177187
0.0177044
0.0177642
0.0177658
0.0177926
0.0178157
0.0181138
0.0181574
0.0181704
0.0177551
0.0175571
0.0176243
0.0176921
0.0176738
0.0177006
0.0177182
0.0178728
0.0179219
0.017875
0.0176011
0.0174735
0.0174158
0.0175952
0.0176068
0.0177246
0.0177645
0.0178743
0.0172369
0.0171424
0.0171609
0.0172133
0.0172327
0.0174696
0.0175382
0.0178537
0.0177019
0.0177373
0.0159492
0.015589
0.015581
0.0155517
0.0155219
0.0155046
0.0155028
0.0155347
0.0155154
0.0156151
0.0156329
0.0156613
0.0156344
0.0155899
0.0155215
0.0155012
0.0155079
0.0155385
0.0154441
0.0154979
0.0157953
0.0157521
0.015653
0.0155877
0.015521
0.0154932
0.0154478
0.0153872
0.0154055
0.0156542
0.0158496
0.0157783
0.0156327
0.0155264
0.0154348
0.0153619
0.0152953
0.0152963
0.015414
0.0157061
0.015811
0.0156641
0.0155008
0.0154236
0.0153888
0.0153317
0.0152787
0.0152807
0.0153628
0.015719
0.0155565
0.0155258
0.0155397
0.0155243
0.0154478
0.0153534
0.015309
0.0153253
0.0154133
0.0154806
0.0155845
0.0156272
0.0156525
0.0155698
0.0154691
0.0154104
0.0154431
0.0155541
0.0156615
0.0156093
0.0157207
0.0157918
0.0156332
0.0155455
0.01546
0.0154833
0.0156722
0.0157872
0.015765
0.0157272
0.0157501
0.0156562
0.0155348
0.0155289
0.0154905
0.0156692
0.0158789
0.0158681
0.0157656
0.0156966
0.0154909
0.0154646
0.0155605
0.0155544
0.0156179
0.0158698
0.0159446
0.0158844
0.0155987
0.0156535
0.0153779
0.015539
0.0156675
0.0157005
0.0157037
0.0156021
0.0153004
0.0152348
0.0151955
0.0151324
0.0153103
0.0154283
0.0155379
0.0155441
0.0154338
0.0152574
0.0152316
0.0152367
0.0152247
0.0151532
0.0152722
0.0153058
0.0153315
0.0152773
0.0152467
0.0152801
0.0152975
0.0152725
0.0152313
0.0151879
0.0152465
0.0152346
0.0152401
0.0153092
0.0153983
0.0153875
0.0153371
0.0152758
0.0152189
0.0152035
0.0153175
0.0153338
0.0153898
0.0154982
0.0154757
0.015417
0.0153336
0.0152565
0.0152114
0.0151925
0.0155432
0.0155595
0.0156208
0.0155808
0.015498
0.0154136
0.0153112
0.0152437
0.0152013
0.0151797
0.0157753
0.0157765
0.01572
0.0155831
0.0154866
0.0153776
0.0152921
0.0152369
0.0151924
0.0151773
0.0159363
0.0158549
0.015642
0.0155178
0.015465
0.0153637
0.0152922
0.0152334
0.0151975
0.0152331
0.0159591
0.0156505
0.0155186
0.0155158
0.0154832
0.0153708
0.0153218
0.0152678
0.015292
0.0153486
0.015588
0.0153139
0.0155648
0.015595
0.0155471
0.0154266
0.0154419
0.0153699
0.0154418
0.0154869
0.0150712
0.0149011
0.0148342
0.0148129
0.0148189
0.0148507
0.0149043
0.0149418
0.014944
0.0149379
0.0151398
0.0149159
0.0148409
0.014826
0.0148748
0.0149337
0.0149264
0.0148888
0.0148648
0.0148666
0.0151917
0.0148846
0.0148563
0.0148839
0.0149537
0.014926
0.014873
0.0147812
0.014766
0.0147776
0.0152817
0.0149181
0.0149031
0.0149561
0.0149358
0.0148896
0.0148144
0.0147395
0.0147395
0.0147633
0.015333
0.0149889
0.0149626
0.0149509
0.0149189
0.0148845
0.0148001
0.0147384
0.0147492
0.0148248
0.0154136
0.0151539
0.015082
0.0150379
0.0149874
0.0149147
0.0147952
0.0147696
0.0148382
0.0149812
0.0154725
0.0153305
0.0152354
0.0150968
0.0150186
0.0149066
0.0147957
0.0148479
0.0150342
0.015046
0.0155158
0.0154324
0.0152023
0.0150691
0.0150072
0.0148685
0.014835
0.0150756
0.0151264
0.0150845
0.0155062
0.0152251
0.0150098
0.0150592
0.0150326
0.0148628
0.0151154
0.0152056
0.0152112
0.0151239
0.0154117
0.0148202
0.0150086
0.0151992
0.0152425
0.0151574
0.0152651
0.0153032
0.0152862
0.0151788
0.0138087
0.0138321
0.0138795
0.0140003
0.0142153
0.014463
0.0146075
0.0146745
0.0146579
0.0147154
0.0138791
0.0139412
0.0141083
0.0142931
0.0144419
0.0145515
0.0146153
0.0145915
0.0144946
0.014515
0.0139917
0.0140521
0.0142235
0.014381
0.0144876
0.014548
0.0145291
0.0144617
0.0143571
0.0143461
0.0140796
0.0141656
0.0142942
0.0144193
0.0144724
0.0144606
0.0144183
0.0143606
0.0143136
0.0143156
0.0143701
0.0144218
0.0144483
0.0144587
0.014454
0.0144195
0.0143822
0.0143405
0.0143105
0.0143229
0.0148006
0.0147416
0.014669
0.0146118
0.0145528
0.0144664
0.0144344
0.0143702
0.0143531
0.0143774
0.0149556
0.014881
0.0147937
0.0147308
0.0146424
0.0145676
0.0144963
0.0144036
0.0143978
0.0143993
0.0149498
0.0148955
0.0148212
0.014754
0.014657
0.0145861
0.0144675
0.0144075
0.0144138
0.0144065
0.0148421
0.0147897
0.0147047
0.0145788
0.0145001
0.0144079
0.0143782
0.0144191
0.0144234
0.0144112
0.0144048
0.0142038
0.0141371
0.0141861
0.0143174
0.0143448
0.0143863
0.0144277
0.0144224
0.014409
0.0131476
0.0131435
0.0131054
0.0129713
0.0129826
0.0131836
0.013753
0.014147
0.0142227
0.0143234
0.0129367
0.0130208
0.0130007
0.012939
0.0129754
0.0132103
0.0137015
0.0139757
0.0139981
0.0141038
0.0126332
0.0127707
0.0128203
0.0128585
0.0129768
0.0133038
0.0136631
0.013808
0.0138014
0.0137731
0.0126705
0.0126903
0.0127334
0.0128147
0.0130096
0.0132836
0.0134737
0.0135319
0.0135298
0.0135216
0.0127512
0.0127054
0.0127303
0.012799
0.0129539
0.0131435
0.0132969
0.0133713
0.013406
0.0134414
0.0132555
0.0130578
0.013035
0.0130692
0.0131612
0.0132674
0.0133374
0.0133702
0.0134081
0.013461
0.0137876
0.0136311
0.013506
0.0135075
0.0135279
0.0135484
0.0135501
0.0135419
0.0135472
0.0135686
0.0140233
0.0139055
0.0138319
0.0138006
0.0137575
0.0137055
0.0136511
0.013618
0.0135989
0.0136013
0.014088
0.0140008
0.013947
0.0138744
0.0137971
0.013733
0.01367
0.0136393
0.0136033
0.0135937
0.0140849
0.0140165
0.013801
0.0135713
0.0134215
0.0133908
0.0134118
0.0133824
0.0133338
0.0132993
0.0120121
0.0116437
0.011373
0.011383
0.0115643
0.0121134
0.0127168
0.0128854
0.0130255
0.0132886
0.0119358
0.0117817
0.0114994
0.0114278
0.0115049
0.0118767
0.012519
0.0127229
0.012677
0.0129388
0.0117471
0.0117491
0.0116442
0.011461
0.0114945
0.0117903
0.012366
0.0125204
0.0125063
0.0124247
0.0116045
0.0116375
0.0115641
0.0114185
0.0114616
0.011759
0.0121687
0.0122336
0.0121795
0.012149
0.0113096
0.0113077
0.0112773
0.0112791
0.0113825
0.0117304
0.0119395
0.0119395
0.0119619
0.0120729
0.0115272
0.0112516
0.011215
0.0112491
0.011364
0.0115856
0.0116966
0.011768
0.0119017
0.0122428
0.0121839
0.011565
0.0113489
0.0113369
0.0113866
0.0114715
0.0116098
0.0117361
0.0120129
0.0123726
0.0128193
0.0123696
0.0119419
0.0116799
0.0115973
0.0116156
0.0116835
0.0118273
0.0121694
0.0124294
0.0130847
0.0128366
0.012572
0.0123586
0.0121851
0.0120508
0.0120574
0.012119
0.0123031
0.0124552
0.0132327
0.0130756
0.0129229
0.0127614
0.0126318
0.0124933
0.0123841
0.0123866
0.012433
0.0124671
0.0111168
0.0108736
0.0105568
0.0104142
0.0105467
0.0107359
0.010896
0.0111185
0.0114411
0.01175
0.0112229
0.0109765
0.0105268
0.0103356
0.0104385
0.0106062
0.0106995
0.0107605
0.0109246
0.0112162
0.0111549
0.0109579
0.010513
0.010284
0.0103666
0.010503
0.0105718
0.0106007
0.0107423
0.0109742
0.0110083
0.0107672
0.0103598
0.0102617
0.0103088
0.0103708
0.0103997
0.0104728
0.0106671
0.0108823
0.0107231
0.0104752
0.0103168
0.0102668
0.0102811
0.0102994
0.0103273
0.0104391
0.0106856
0.0109259
0.0107858
0.0105676
0.0104146
0.010333
0.0103032
0.0102975
0.010341
0.0105328
0.0108668
0.0111707
0.0112275
0.0109067
0.0107197
0.010586
0.0104915
0.0104518
0.0104959
0.0107358
0.0110767
0.0113886
0.0119275
0.0115256
0.0111612
0.0109046
0.0107636
0.0106693
0.0106892
0.0109731
0.0112898
0.0115221
0.012277
0.0119632
0.0116574
0.0113457
0.0110937
0.0108948
0.0108581
0.0112281
0.0114969
0.0116283
0.0125548
0.0122941
0.0120315
0.0117472
0.0114362
0.0111348
0.011026
0.0114152
0.0115999
0.0116373
0.0113329
0.0108137
0.010513
0.0101338
0.00997433
0.0099609
0.009963
0.0100447
0.0102121
0.0105435
0.0112156
0.0107626
0.0103233
0.00999124
0.00985578
0.00983662
0.00982289
0.00988423
0.0100598
0.0103562
0.0109787
0.0106901
0.0102615
0.00996423
0.00980511
0.00974164
0.00970716
0.00976428
0.00994477
0.0102387
0.0106584
0.0104779
0.0101683
0.00992559
0.00977176
0.00968254
0.00965114
0.00971074
0.00989968
0.010193
0.0106307
0.0103681
0.0101274
0.00991897
0.00977323
0.00967422
0.00964978
0.00971325
0.0099004
0.0102054
0.0111385
0.0106391
0.0103034
0.0100653
0.00990716
0.00978956
0.00974735
0.00979739
0.00995949
0.010312
0.0117355
0.011335
0.0109215
0.0105488
0.0102653
0.0100677
0.00993734
0.00995519
0.0100856
0.0104814
0.0120779
0.0117701
0.0114522
0.0110975
0.0107526
0.0104591
0.0102059
0.0101626
0.0102603
0.0106859
0.012336
0.012058
0.0117915
0.011523
0.0111967
0.0109088
0.0105877
0.0104061
0.0104507
0.0108478
0.0124134
0.012119
0.0118443
0.0116215
0.0113659
0.0111502
0.0108919
0.0106638
0.0106709
0.0109199
0.0114109
0.0110968
0.0106436
0.0101782
0.00985817
0.00972474
0.0097345
0.00981113
0.010006
0.0102616
0.0110672
0.0106208
0.0101186
0.00974107
0.00953087
0.00946477
0.00949205
0.00958749
0.00978676
0.0101423
0.0106009
0.0101804
0.00980229
0.009539
0.00938807
0.00934374
0.00937876
0.009484
0.00968509
0.0100449
0.0104613
0.0100592
0.00973368
0.00950951
0.00936902
0.00931688
0.00934916
0.00945421
0.00965226
0.0100096
0.0107699
0.010311
0.00996822
0.00972715
0.00955996
0.00944804
0.00945604
0.00952692
0.00969299
0.0100166
0.0112423
0.0107547
0.010363
0.0100563
0.0098384
0.00967302
0.00962842
0.00967279
0.00980349
0.010077
0.0116955
0.0112251
0.0107917
0.0104264
0.0101429
0.00994966
0.00984274
0.00986714
0.00997478
0.0102363
0.0119216
0.0114898
0.0110825
0.0107202
0.0104023
0.0101782
0.0100453
0.0100633
0.0101699
0.0104748
0.0119038
0.0114952
0.0111274
0.0108025
0.0105162
0.0103053
0.0102063
0.0102414
0.0103877
0.0107954
0.0116795
0.0113553
0.0110756
0.0108327
0.0106305
0.0104658
0.0104127
0.0104695
0.0106708
0.0111336
0.0114111
0.0110697
0.01062
0.0102189
0.0099294
0.00977634
0.00978559
0.00986583
0.0100666
0.0103382
0.0108499
0.010457
0.0100514
0.00971089
0.0094903
0.00938944
0.00941283
0.00951121
0.00972674
0.0101276
0.0104979
0.0100511
0.00970262
0.00944882
0.00928195
0.00920149
0.00922798
0.00933033
0.00956122
0.0100303
0.0103641
0.00994547
0.00962323
0.00938955
0.00923012
0.00914385
0.00916535
0.00926337
0.00949984
0.00999744
0.0105172
0.0100823
0.00975618
0.00950446
0.00932212
0.00919675
0.00919
0.00926412
0.0094963
0.0100015
0.0107628
0.0103299
0.00999559
0.0097118
0.0094903
0.00934427
0.00931347
0.00937606
0.00957149
0.0100213
0.0109797
0.0105341
0.0102091
0.00992932
0.00969906
0.0095425
0.00950099
0.00956007
0.00972673
0.0101202
0.0110822
0.0106721
0.0103985
0.0101482
0.0099314
0.00979187
0.00975436
0.00981983
0.00997879
0.0103398
0.011142
0.0108464
0.0106141
0.01039
0.0102198
0.0101254
0.0100932
0.0101552
0.0103191
0.0107081
0.0112736
0.0111213
0.0108987
0.0107369
0.0106389
0.0106057
0.0105768
0.0105841
0.0107078
0.011018
0.0120504
0.0117785
0.0113761
0.0110759
0.0108373
0.0106547
0.0105546
0.0105735
0.0106825
0.0109714
0.0113319
0.0110546
0.0107273
0.0104311
0.0101676
0.00995211
0.00992429
0.00999191
0.0102224
0.0107961
0.0108812
0.0104804
0.0101428
0.00984201
0.00959268
0.00946927
0.00949139
0.00962024
0.00995398
0.0106673
0.0107093
0.0102423
0.00984748
0.00954466
0.00933555
0.00925132
0.00928548
0.00942707
0.00978141
0.0105471
0.010702
0.0102311
0.00982534
0.0095159
0.00930316
0.00920422
0.00923087
0.00935708
0.00968914
0.0104053
0.0109043
0.0104498
0.0100349
0.00970546
0.00947157
0.00932958
0.0093358
0.0094206
0.00967775
0.0102713
0.0111516
0.0107125
0.0103089
0.00998578
0.00974844
0.00959451
0.00956464
0.00961925
0.00979625
0.010255
0.0114456
0.0110121
0.0106316
0.0103359
0.0101194
0.00998498
0.00992279
0.00995189
0.0100663
0.0103693
0.0117574
0.0113318
0.0109991
0.0107552
0.0105872
0.0104968
0.0104391
0.0104381
0.0104932
0.0106598
0.0120667
0.0116809
0.0114241
0.0112498
0.011149
0.0111316
0.0111319
0.0110816
0.0110762
0.0110905
0.0136261
0.0131101
0.0126702
0.0123078
0.0119221
0.0115973
0.0115482
0.0116387
0.0120098
0.0128406
0.0128771
0.012328
0.0118656
0.0114645
0.0110832
0.0108852
0.0109128
0.0111107
0.0117165
0.0127637
0.0124867
0.0118826
0.0113409
0.0108688
0.0105148
0.0103885
0.0104534
0.0107218
0.0113982
0.0124043
0.0121015
0.0114473
0.0108995
0.0104864
0.010214
0.0101335
0.0102073
0.0104644
0.0110897
0.0120329
0.0119261
0.0112735
0.0107666
0.010393
0.0101452
0.0100621
0.0101244
0.0103487
0.0108618
0.0117198
0.0120009
0.0113861
0.0109033
0.0105419
0.0103024
0.0101873
0.0102228
0.0103795
0.0107626
0.0115355
0.0122674
0.0116751
0.011216
0.010877
0.0106555
0.0105323
0.0105425
0.0106366
0.0108972
0.0115099
0.0126039
0.0120312
0.0116151
0.0113263
0.011151
0.011078
0.0110608
0.0111069
0.0112509
0.011645
0.0129828
0.0124533
0.0121027
0.0118802
0.0117793
0.0117827
0.0118003
0.0118004
0.0118385
0.0120198
0.0134216
0.0129445
0.0126728
0.0125288
0.0125228
0.0126234
0.0127164
0.0127046
0.01262
0.0126511
0.0165772
0.0158945
0.0153525
0.0148303
0.0143697
0.0141993
0.0142537
0.014507
0.0151176
0.0161367
0.0157696
0.0150561
0.0144315
0.013885
0.0135025
0.0134065
0.0135214
0.0139192
0.0147873
0.0159561
0.0154514
0.0145587
0.0137952
0.0132042
0.0128338
0.0127878
0.0129701
0.0134903
0.0144322
0.0155902
0.0151239
0.0141512
0.0133936
0.0128304
0.0125042
0.0124799
0.012676
0.0132053
0.0141486
0.0152635
0.0148839
0.0139812
0.0132663
0.0127276
0.0124184
0.0123922
0.012576
0.0130772
0.0139452
0.015018
0.0148409
0.0140301
0.0133737
0.0128745
0.0125875
0.0125492
0.0126905
0.0130777
0.0138599
0.0148993
0.0150641
0.0143225
0.0137187
0.013283
0.0130419
0.0130074
0.0131107
0.0133795
0.0139517
0.0149297
0.0154403
0.0147331
0.0142064
0.0138741
0.0137209
0.0137208
0.0138066
0.0139762
0.0143052
0.0151127
0.0159081
0.0152608
0.0148333
0.0146093
0.0145521
0.0146112
0.0147306
0.0148391
0.0149959
0.0155489
0.0164547
0.0158944
0.0155757
0.0154487
0.0154711
0.0156219
0.015826
0.0159805
0.0160653
0.0163969
0.0187692
0.017974
0.0172975
0.016729
0.0164106
0.0164164
0.0166526
0.0172081
0.0179967
0.0190162
0.0180585
0.0172482
0.0165074
0.0159533
0.015673
0.0157016
0.0160227
0.0166868
0.0175838
0.018666
0.0176946
0.0167237
0.0159269
0.015401
0.0151546
0.0151931
0.0155593
0.0162627
0.0171854
0.0182269
0.0173509
0.0163854
0.0156519
0.0151494
0.0149133
0.0149395
0.0152748
0.0159256
0.0168173
0.0178004
0.0172111
0.0162896
0.0155966
0.0150968
0.0148554
0.0148625
0.0151674
0.0157539
0.0165772
0.0175348
0.0173105
0.0164915
0.0158377
0.015317
0.0150384
0.0149995
0.0152273
0.0157278
0.0165094
0.0174564
0.0177096
0.0169727
0.016323
0.0157853
0.0154763
0.0154074
0.0155713
0.0159588
0.0166498
0.0175811
0.0182843
0.017567
0.0169306
0.0164192
0.0161253
0.0160534
0.0161971
0.0165026
0.0170296
0.01788
0.0189509
0.0182317
0.0176309
0.017172
0.016934
0.0168898
0.017066
0.0173713
0.0177535
0.0184323
0.0196841
0.0189908
0.0184267
0.0180333
0.0178542
0.0178508
0.0180907
0.0184697
0.0188853
0.0193976
0.0192687
0.0184317
0.017717
0.0171986
0.0169717
0.0170534
0.0174579
0.0181254
0.0189406
0.0199109
0.018598
0.0177348
0.0169589
0.0164629
0.0162782
0.0163815
0.0168332
0.017531
0.0183602
0.0193242
0.0181457
0.0171698
0.016402
0.0159451
0.0157814
0.015884
0.0163338
0.0170265
0.0178492
0.018796
0.0178015
0.0168659
0.0161533
0.0157013
0.0155286
0.0155922
0.0159782
0.0166081
0.0174057
0.0183138
0.0176966
0.0167949
0.0161116
0.0156455
0.0154537
0.0154879
0.0158272
0.0164003
0.0171664
0.0180652
0.017881
0.0170489
0.0164035
0.0158568
0.0155879
0.0155624
0.0158423
0.0163796
0.01713
0.0180247
0.0183589
0.0176076
0.0169631
0.0163391
0.0159768
0.0159061
0.0161329
0.016618
0.0173262
0.0182158
0.0190267
0.0183112
0.0176331
0.0169797
0.0165849
0.0164938
0.0167045
0.0171475
0.0177645
0.0185896
0.0198283
0.0190718
0.0183556
0.0177259
0.0173768
0.0172997
0.0175325
0.0179757
0.0185147
0.0192044
0.0206969
0.0198843
0.0191664
0.0185931
0.0183022
0.0182488
0.0185174
0.0190069
0.0195653
0.0201171
0.0139964
0.0137049
0.0134543
0.0132848
0.0131986
0.0131682
0.0132208
0.0134503
0.0138315
0.0143121
0.0136914
0.0133445
0.0130732
0.0129354
0.012885
0.0128657
0.0129264
0.0131485
0.0135014
0.0139632
0.0134951
0.0131215
0.0128722
0.0127422
0.0126842
0.0126741
0.0127454
0.0129381
0.0132447
0.0136366
0.0133758
0.0130017
0.0127718
0.0126504
0.0125935
0.0125838
0.0126435
0.0127867
0.0130192
0.0133137
0.0133503
0.012966
0.0127462
0.012627
0.0125701
0.0125565
0.0125931
0.0126911
0.0128805
0.013154
0.0134509
0.0130473
0.0128339
0.012674
0.0125896
0.0125694
0.0125883
0.0126761
0.0128632
0.0131384
0.0137093
0.0133013
0.0130779
0.0128307
0.0126674
0.0126305
0.012652
0.0127467
0.012944
0.0132446
0.0141376
0.0136935
0.0134496
0.0130952
0.0128234
0.0127468
0.0127754
0.0128868
0.0131033
0.0134512
0.0146675
0.0142074
0.0138684
0.0134273
0.0130817
0.0129663
0.0129884
0.0131221
0.0133593
0.0137104
0.0152568
0.0148001
0.014288
0.013794
0.0134324
0.0133005
0.0133208
0.0134957
0.0137583
0.0140132
0.0101974
0.0101572
0.010136
0.0100963
0.00995651
0.0098387
0.00980935
0.00987605
0.00998999
0.0101356
0.0101088
0.00999063
0.00989867
0.00986924
0.00977073
0.00966125
0.00965947
0.00973218
0.00985277
0.0100248
0.010071
0.00988113
0.00975181
0.00966716
0.0095751
0.00953669
0.00955725
0.00963674
0.00975335
0.00989251
0.010008
0.00978228
0.009646
0.009547
0.00948099
0.00946463
0.00948878
0.00955757
0.00965584
0.00974994
0.00997707
0.009738
0.00960615
0.00951824
0.00947029
0.00945479
0.00946127
0.00950493
0.00958692
0.00967827
0.00998167
0.00973378
0.00960961
0.00952906
0.00948988
0.00947354
0.00947174
0.00950576
0.00958669
0.00967802
0.0100567
0.00981296
0.00970299
0.00959972
0.00955005
0.00954002
0.00954306
0.00957371
0.0096476
0.00973994
0.0102271
0.00998294
0.00988953
0.00974375
0.00963972
0.00961654
0.00962792
0.00965003
0.00970641
0.0098149
0.0104789
0.0102468
0.0101247
0.00993765
0.00977763
0.00971118
0.00971026
0.00972576
0.00977814
0.00989581
0.0107587
0.0105601
0.0102891
0.0100883
0.00992401
0.00982728
0.00982415
0.00986441
0.00991948
0.00999324
0.00835714
0.00834981
0.00837115
0.00836725
0.00820349
0.0081309
0.00812917
0.0081491
0.00817153
0.00822831
0.00833984
0.00828871
0.00826118
0.00826115
0.00809559
0.0080224
0.00802136
0.00804428
0.00808846
0.00817995
0.00836819
0.00827436
0.0082014
0.0081192
0.00797379
0.00793524
0.00794421
0.00798574
0.00805365
0.00815504
0.00835298
0.00821527
0.00811042
0.00799897
0.00790576
0.00788235
0.00789637
0.00794884
0.00802801
0.00811975
0.0082922
0.0081487
0.00804205
0.00794871
0.00789464
0.00787821
0.00788389
0.00792437
0.0079941
0.00806891
0.00826661
0.00811922
0.00801953
0.00794846
0.00791038
0.00789594
0.00789671
0.0079313
0.00799251
0.00805964
0.00827254
0.00813026
0.00805629
0.00800063
0.00796871
0.00795389
0.00795148
0.0079756
0.00802954
0.00809864
0.0083202
0.0082065
0.00814874
0.00809027
0.00805269
0.00802894
0.00801842
0.00802276
0.00805893
0.00813337
0.00843998
0.00836481
0.00829558
0.00821295
0.00814841
0.00811108
0.00808828
0.00808113
0.00809244
0.00815668
0.00863867
0.00856177
0.00842385
0.00833665
0.00826381
0.00819749
0.00817863
0.00818032
0.00818552
0.0082133
0.00746725
0.00743386
0.00742962
0.0074452
0.0073828
0.00730463
0.00730042
0.00733001
0.0073484
0.00739048
0.00744889
0.00738874
0.00737121
0.00737273
0.00727951
0.00721326
0.0072077
0.00723038
0.00726674
0.00734569
0.00745664
0.00738465
0.00734096
0.00730597
0.00719834
0.00714545
0.00714314
0.00717362
0.00723
0.0073267
0.00748254
0.00739153
0.00731987
0.00724823
0.00714564
0.00710525
0.00710443
0.00713637
0.00720103
0.0072972
0.0075089
0.00738999
0.00729704
0.0072056
0.00712744
0.00710116
0.00709979
0.00712484
0.00718105
0.00726655
0.00749493
0.0073655
0.00726347
0.00718477
0.00713142
0.00711046
0.00710833
0.00713349
0.00718501
0.00726291
0.00744803
0.00733739
0.00725993
0.00720036
0.00716186
0.00714411
0.0071393
0.00715614
0.00720108
0.00727421
0.00745269
0.00737541
0.00731635
0.00727509
0.00724338
0.00720734
0.00718978
0.00719155
0.00722904
0.00730588
0.00755132
0.00748592
0.00741879
0.0073708
0.00733601
0.00728589
0.0072545
0.00724978
0.00727062
0.00733327
0.00771961
0.00763444
0.00755255
0.00749081
0.00744638
0.00738377
0.00734462
0.0073411
0.00735119
0.00738057
0.0069966
0.00695617
0.00692045
0.00689864
0.00686595
0.00682841
0.00683107
0.00686479
0.00689546
0.00693867
0.006973
0.00691455
0.00687691
0.006859
0.00681816
0.00677854
0.00677488
0.00679617
0.00683203
0.0068936
0.00697099
0.00690219
0.00685533
0.00683048
0.00678021
0.0067408
0.00673504
0.00675255
0.00679085
0.00685595
0.00697461
0.00690295
0.00685048
0.00681227
0.00675499
0.00671979
0.00671296
0.00672548
0.00675954
0.00681268
0.00698649
0.00691188
0.00685625
0.00680415
0.00674772
0.00672115
0.00671448
0.00672261
0.00675106
0.00679602
0.00702096
0.00693646
0.00686433
0.00680199
0.00675285
0.00673038
0.00672334
0.00673114
0.00675749
0.00679867
0.00702373
0.00693735
0.00686666
0.00681025
0.00677221
0.00675284
0.00674439
0.00674648
0.00676937
0.00681174
0.00702184
0.00695025
0.00689155
0.00685268
0.00682784
0.00680085
0.00677872
0.00677514
0.00679738
0.00684614
0.0070879
0.00702055
0.0069685
0.00693191
0.00690041
0.0068588
0.00682407
0.00681869
0.00683804
0.00688235
0.0071976
0.00712621
0.00706856
0.00701631
0.0069798
0.00693327
0.00688155
0.00687752
0.00689963
0.00692946
0.00677028
0.00673517
0.00670072
0.00667093
0.00664745
0.0066317
0.00663565
0.00665579
0.00668218
0.00671509
0.00675829
0.00671559
0.00667989
0.0066508
0.00662553
0.00660626
0.00660433
0.00661721
0.00664168
0.00667942
0.00675671
0.00670968
0.00666863
0.00663626
0.00660722
0.00658556
0.00658086
0.00659027
0.00661238
0.00664778
0.00676015
0.00671054
0.00666512
0.00662881
0.00659602
0.00657459
0.00656814
0.00657352
0.00659236
0.00662068
0.00676997
0.00671628
0.00666898
0.00663014
0.0065964
0.00657661
0.00656962
0.00657187
0.00658701
0.0066099
0.00679689
0.00673663
0.0066832
0.00663753
0.00660426
0.00658627
0.00657863
0.00657942
0.00659232
0.00661374
0.00681284
0.00675217
0.00669602
0.00665221
0.00662386
0.00660816
0.0065971
0.00659494
0.00660623
0.00662888
0.00682462
0.00676987
0.00671954
0.00668344
0.00666438
0.00664495
0.00662574
0.00662012
0.00662942
0.00665304
0.00688569
0.00682478
0.00677614
0.00674234
0.00671663
0.00668999
0.00666103
0.00665185
0.00665923
0.00668203
0.00693009
0.00688115
0.00683727
0.00679847
0.0067661
0.006737
0.00669987
0.00668812
0.00669711
0.00671595
0.00675906
0.0067243
0.00669593
0.00666835
0.0066425
0.00662714
0.0066318
0.00664908
0.00667027
0.00669917
0.00675239
0.00670981
0.00667652
0.00664748
0.00662049
0.00660243
0.00660148
0.00661219
0.00663278
0.00666772
0.00675466
0.0067088
0.00666788
0.00663276
0.00660264
0.006583
0.00657895
0.00658712
0.00660752
0.00664194
0.00676286
0.00671224
0.0066639
0.00662256
0.00659092
0.00657176
0.00656598
0.0065716
0.00658948
0.00661761
0.00677568
0.00671698
0.0066638
0.00662132
0.00659011
0.00657144
0.00656467
0.00656761
0.00658193
0.0066046
0.00679119
0.00672959
0.00667057
0.00662824
0.00659896
0.00658163
0.00657409
0.00657541
0.00658836
0.00660958
0.00680372
0.00674329
0.00669625
0.00664702
0.00662077
0.00660324
0.00659361
0.00659305
0.0066049
0.00662696
0.00682882
0.00676951
0.00672358
0.00668515
0.00666136
0.00663791
0.00662247
0.00661878
0.00662686
0.00664869
0.00687471
0.00681667
0.00677258
0.00673448
0.00670582
0.0066832
0.00665809
0.00665063
0.00665475
0.00667295
0.00691105
0.00686434
0.00681547
0.0067788
0.00674562
0.00672089
0.00669447
0.00668748
0.00669214
0.00670507
0.00794137
0.00724186
0.00720389
0.0070957
0.00642544
0.00642586
0.00709669
0.00720488
0.00724349
0.0079432
0.00724241
0.00641633
0.00609907
0.00595393
0.00580783
0.00580774
0.00595431
0.00610029
0.00641617
0.0072409
0.00720481
0.00609921
0.00576011
0.00563352
0.00557792
0.00557865
0.00563349
0.00575782
0.00609721
0.00720293
0.00709649
0.00595405
0.00563347
0.00551595
0.00546931
0.00546676
0.00551334
0.00563079
0.00595158
0.00709466
0.00642566
0.00580765
0.00557857
0.00546699
0.00542008
0.00541978
0.00546611
0.00557515
0.00580523
0.00642342
0.00642642
0.00580645
0.00557531
0.00546607
0.00541975
0.00541976
0.0054661
0.00557512
0.00580491
0.00642072
0.00709452
0.00595139
0.00563077
0.00551286
0.0054661
0.0054659
0.00551246
0.00562821
0.00594501
0.00707204
0.00720309
0.00609683
0.00575747
0.00563045
0.00557472
0.00557141
0.00562539
0.00573794
0.00607894
0.00718485
0.00724109
0.00641394
0.00609648
0.00594676
0.0057999
0.00578576
0.00593204
0.00608015
0.00639708
0.0072226
0.00794114
0.0072356
0.00719718
0.00707382
0.00640131
0.00640625
0.00707633
0.00718458
0.00722258
0.00792226
0.00570133
0.00545877
0.00540898
0.00536697
0.00522594
0.00522603
0.00536721
0.00540921
0.0054592
0.00570193
0.00545888
0.00521115
0.0051039
0.00504917
0.00501111
0.00501109
0.00504928
0.00510425
0.00521107
0.00545876
0.00540917
0.00510392
0.00498534
0.00492767
0.00490172
0.00490194
0.00492765
0.00498481
0.00510354
0.00540898
0.00536713
0.00504918
0.00492765
0.0048673
0.0048408
0.00484011
0.00486663
0.00492703
0.0050487
0.00536693
0.00522598
0.00501106
0.00490192
0.00484017
0.00481258
0.00481252
0.00483998
0.00490105
0.00501057
0.00522565
0.00522623
0.00501079
0.00490105
0.00483996
0.00481252
0.00481253
0.00484
0.00490108
0.00501057
0.00522552
0.00536685
0.00504865
0.00492703
0.00486655
0.00484
0.00484001
0.00486655
0.00492693
0.00504852
0.00536965
0.00540901
0.00510351
0.0049848
0.00492707
0.00490108
0.00490092
0.00492683
0.00498668
0.0051055
0.00541147
0.00545887
0.00521095
0.00510357
0.00504859
0.00501036
0.00501237
0.00505082
0.00510547
0.00521284
0.00546123
0.00570159
0.00545877
0.00540893
0.00536956
0.0052276
0.00522753
0.00536951
0.00541148
0.00546123
0.00570407
0.00458142
0.00450599
0.00447778
0.00445866
0.00443235
0.00443237
0.00445872
0.00447784
0.00450611
0.00458156
0.00450601
0.00442735
0.00438573
0.00436189
0.00434913
0.00434913
0.00436193
0.00438579
0.00442735
0.00450669
0.00447781
0.00438573
0.00433762
0.00431018
0.00429747
0.0042975
0.00431017
0.004338
0.00438619
0.00447843
0.00445869
0.0043619
0.00431018
0.00428008
0.00426614
0.00426641
0.00428038
0.00431054
0.00436235
0.00445929
0.00443236
0.00434913
0.0042975
0.00426641
0.00425177
0.00425178
0.00426643
0.00429781
0.00434956
0.00443292
0.00443237
0.00434949
0.00429779
0.00426642
0.00425179
0.0042518
0.00426645
0.00429784
0.0043496
0.00443308
0.00445926
0.00436233
0.00431054
0.00428041
0.00426645
0.00426649
0.00428048
0.00431084
0.00436302
0.0044644
0.00447843
0.00438624
0.00433805
0.00431062
0.00429789
0.00429823
0.00431115
0.00434329
0.00439111
0.00448291
0.00450673
0.00442802
0.00438632
0.00436284
0.0043501
0.00435472
0.00436748
0.00439091
0.00443265
0.00451123
0.00458221
0.00450717
0.00447893
0.00446414
0.00443818
0.00443753
0.00446375
0.00448293
0.00451123
0.00458664
0.00390661
0.00388313
0.00387097
0.0038631
0.0038572
0.00385721
0.00386311
0.00387099
0.00388316
0.00390663
0.00388313
0.00385593
0.00383903
0.0038286
0.00382346
0.00382346
0.00382862
0.00383903
0.00385594
0.00388383
0.00387097
0.00383903
0.00381877
0.0038062
0.0038002
0.00380019
0.00380619
0.00381929
0.00383959
0.00387163
0.00386311
0.00382861
0.0038062
0.00379214
0.00378541
0.00378588
0.00379262
0.00380671
0.00382917
0.00386375
0.00385721
0.00382347
0.0038002
0.00378587
0.00377878
0.00377879
0.0037859
0.0038007
0.00382402
0.00385784
0.00385719
0.00382396
0.0038007
0.0037859
0.00377879
0.0037788
0.00378591
0.00380072
0.00382403
0.00385788
0.00386375
0.00382917
0.00380672
0.00379265
0.00378591
0.00378592
0.00379267
0.00380679
0.00382932
0.00386523
0.00387163
0.00383963
0.00381932
0.00380674
0.00380073
0.0038008
0.00380685
0.00382071
0.00384098
0.00387299
0.00388384
0.0038566
0.00383966
0.00382928
0.00382413
0.00382539
0.00383055
0.00384093
0.00385792
0.00388522
0.00390735
0.00388394
0.00387175
0.00386514
0.0038593
0.00385916
0.00386508
0.00387299
0.00388522
0.00390873
0.00344123
0.00343342
0.00342848
0.00342528
0.00342349
0.00342349
0.00342528
0.00342849
0.00343343
0.00344123
0.00343342
0.00342333
0.00341638
0.00341192
0.00340972
0.00340972
0.00341192
0.00341637
0.00342334
0.00343385
0.00342849
0.00341638
0.00340788
0.00340237
0.00339967
0.00339967
0.00340236
0.00340823
0.00341675
0.0034289
0.00342529
0.00341192
0.00340237
0.00339615
0.0033931
0.00339343
0.00339648
0.00340271
0.00341229
0.00342569
0.0034235
0.00340972
0.00339967
0.00339342
0.00339021
0.00339021