/*--------------------------------*- C++ -*----------------------------------*\
  =========                 |
  \\      /  F ield         | OpenFOAM: The Open Source CFD Toolbox
   \\    /   O peration     | Website:  https://openfoam.org
    \\  /    A nd           | Version:  9
     \\/     M anipulation  |
\*---------------------------------------------------------------------------*/
FoamFile
{
    format      ascii;
    class       volScalarField;
    location    "1";
    object      f11.gas;
}
// * * * * * * * * * * * * * * * * * * * * * * * * * * * * * * * * * * * * * //

dimensions      [0 0 0 0 0 0 0];

internalField   nonuniform List<scalar> 
137980
(
0.0261803
0.0283015
0.0273359
0.0263828
0.0263967
0.0264723
0.0265917
0.0268644
0.0271105
0.0278508
0.0288627
0.0282134
0.0279392
0.0268505
0.0255961
0.0257408
0.0260508
0.0263713
0.026998
0.0282763
0.0274658
0.0270571
0.0258469
0.025689
0.0255468
0.0259208
0.0259417
0.0260723
0.0268544
0.0273013
0.0261939
0.0245602
0.0245979
0.0249621
0.0251959
0.025831
0.0257151
0.0251658
0.0247714
0.0246553
0.0237559
0.0233242
0.0238459
0.0241961
0.0246524
0.0255265
0.0255084
0.0247154
0.0236656
0.0234558
0.0230957
0.0234657
0.0239034
0.0237788
0.0246225
0.0252574
0.0250941
0.0241158
0.0232083
0.024343
0.0235485
0.0244893
0.0244705
0.0242245
0.0243804
0.0246212
0.024897
0.0243328
0.0240413
0.0264435
0.0252983
0.0257839
0.0250027
0.0242147
0.0231782
0.0234323
0.0248025
0.0250364
0.0253377
0.0271172
0.0253441
0.02592
0.0250022
0.0232419
0.0218793
0.0223556
0.023505
0.0253397
0.025908
0.0263391
0.0259572
0.0263744
0.024621
0.0230572
0.0216687
0.0219771
0.0227044
0.0243027
0.0254307
0.0261475
0.0197399
0.0205906
0.0206246
0.0205353
0.020467
0.0205658
0.0206704
0.0211277
0.0214012
0.0208102
0.0211429
0.020968
0.0209636
0.0209101
0.0211786
0.021651
0.022237
0.0225443
0.0224464
0.021658
0.0211097
0.0210107
0.0211286
0.0211316
0.0212176
0.0217913
0.0223792
0.0226254
0.0225498
0.0221908
0.020415
0.0207318
0.0209905
0.0210148
0.0211087
0.0216167
0.0219967
0.0221494
0.0220933
0.0217379
0.0200322
0.0204084
0.0208222
0.0208347
0.0209033
0.0212823
0.0214643
0.021524
0.0215334
0.0214241
0.0199197
0.0204834
0.0208396
0.0207802
0.0207828
0.0209311
0.021051
0.0210577
0.0211073
0.0212391
0.0204676
0.0211209
0.0209941
0.0206248
0.0206035
0.0206773
0.0206908
0.0207031
0.020715
0.0210433
0.0211292
0.021164
0.0206684
0.0204217
0.0204999
0.020567
0.020579
0.0206235
0.0206195
0.0207657
0.0208629
0.0208291
0.0204786
0.0203086
0.0202377
0.0204476
0.0204556
0.0206305
0.0206808
0.0207856
0.0200483
0.0199461
0.0199472
0.0199896
0.0200147
0.0202957
0.0203639
0.0207465
0.0205914
0.0206182
0.0185214
0.018097
0.0180886
0.0180548
0.0180199
0.0179997
0.0179977
0.0180375
0.0180165
0.0181334
0.0181499
0.0181874
0.0181564
0.0181048
0.0180254
0.018001
0.0180087
0.0180459
0.0179343
0.0179965
0.0183429
0.0182979
0.0181796
0.0181035
0.0180261
0.0179952
0.0179426
0.0178671
0.0178861
0.0181752
0.0184077
0.0183291
0.0181565
0.018034
0.0179266
0.0178411
0.0177581
0.0177571
0.0178948
0.0182333
0.0183635
0.0181905
0.0180034
0.0179139
0.0178726
0.0178047
0.0177382
0.0177392
0.017835
0.0182466
0.018066
0.0180329
0.0180532
0.0180364
0.0179431
0.0178297
0.017775
0.0177945
0.0178989
0.0179741
0.0181017
0.0181586
0.0181909
0.0180899
0.0179656
0.0178957
0.0179349
0.018068
0.0181873
0.018125
0.0182707
0.0183588
0.0181671
0.0180541
0.0179513
0.0179789
0.0182052
0.0183352
0.0183055
0.0182647
0.0183089
0.0181953
0.0180377
0.0180299
0.0179857
0.0181971
0.0184397
0.0184232
0.0182944
0.0182266
0.0179925
0.0179488
0.0180642
0.0180573
0.0181306
0.0184249
0.0185096
0.0184361
0.0180953
0.0181638
0.0178291
0.0180257
0.0181833
0.0182259
0.0182301
0.0181099
0.0177551
0.0176821
0.0176372
0.0175625
0.0177579
0.0178977
0.0180303
0.0180365
0.0179062
0.0177024
0.0176784
0.0176888
0.0176739
0.0175916
0.0177127
0.0177466
0.0177769
0.0177236
0.0177011
0.0177434
0.0177671
0.0177355
0.0176824
0.0176312
0.0176842
0.0176688
0.0176775
0.0177768
0.0178856
0.0178731
0.0178126
0.0177381
0.0176671
0.0176481
0.0177758
0.0177977
0.0178722
0.0180045
0.017978
0.0179085
0.0178052
0.0177108
0.0176546
0.0176322
0.0180507
0.018072
0.0181501
0.0181029
0.0180046
0.0178989
0.0177713
0.0176911
0.0176367
0.0176159
0.0183316
0.0183368
0.01827
0.0181056
0.0179819
0.0178485
0.0177457
0.0176817
0.0176277
0.0176122
0.0185301
0.0184334
0.0181751
0.0180138
0.0179507
0.0178298
0.0177453
0.0176776
0.0176332
0.0176652
0.0185568
0.0181844
0.0180111
0.0180071
0.0179682
0.0178363
0.0177817
0.0177181
0.01774
0.0177959
0.0181136
0.0177559
0.0180536
0.0181008
0.0180471
0.017909
0.0179257
0.0178331
0.0179181
0.0179651
0.0174707
0.0172763
0.0171953
0.0171688
0.017177
0.017218
0.0172885
0.0173326
0.0173367
0.0173283
0.0175641
0.0173073
0.0172131
0.0171958
0.0172541
0.0173269
0.0173189
0.0172757
0.0172435
0.0172452
0.0176287
0.0172666
0.0172322
0.0172653
0.0173524
0.0173226
0.0172617
0.0171468
0.017125
0.017138
0.0177376
0.0173025
0.0172864
0.0173542
0.0173329
0.0172803
0.0171879
0.0170939
0.0170928
0.0171203
0.0178108
0.0173895
0.0173599
0.0173488
0.0173154
0.0172731
0.0171686
0.0170919
0.0171039
0.017193
0.0179078
0.0175933
0.0175095
0.0174598
0.0173959
0.0173075
0.01716
0.0171273
0.0172084
0.0173743
0.0179848
0.0178124
0.0176994
0.0175279
0.0174288
0.017289
0.0171578
0.0172197
0.0174387
0.0174482
0.0180322
0.0179324
0.0176509
0.0174765
0.017404
0.0172428
0.0172035
0.0174895
0.0175459
0.0174928
0.0180175
0.0176711
0.0173891
0.0174585
0.0174325
0.0172376
0.0175385
0.0176402
0.0176458
0.0175352
0.0179009
0.0171402
0.017379
0.0176272
0.0176889
0.0175878
0.0177148
0.0177558
0.0177301
0.0175943
0.0159331
0.0159613
0.0160215
0.01618
0.0164624
0.0167661
0.0169397
0.0170191
0.0169991
0.0170648
0.01602
0.0160981
0.0163124
0.0165552
0.0167431
0.0168762
0.0169512
0.0169248
0.0168093
0.016829
0.0161566
0.0162348
0.0164606
0.0166661
0.0167998
0.0168738
0.0168527
0.0167769
0.0166459
0.0166296
0.0162668
0.0163802
0.0165523
0.0167148
0.0167854
0.0167734
0.0167246
0.0166598
0.0165948
0.0165949
0.0166316
0.0167085
0.0167517
0.0167705
0.0167668
0.0167293
0.0166838
0.0166369
0.0165913
0.0166034
0.0171823
0.0171123
0.017029
0.0169605
0.0168966
0.0167875
0.0167481
0.0166692
0.016637
0.0166561
0.0173719
0.0172822
0.0171785
0.0171011
0.016995
0.0168983
0.0168186
0.0166957
0.0166755
0.0166712
0.0173615
0.0172965
0.0172059
0.0171246
0.0170044
0.0169193
0.0167687
0.0166861
0.0166854
0.0166737
0.0172186
0.0171579
0.0170492
0.0168934
0.0167948
0.0166789
0.0166409
0.0166848
0.0166895
0.0166744
0.0166608
0.0164078
0.0163278
0.0163965
0.0165602
0.0165898
0.016637
0.0166895
0.0166827
0.0166682
0.0151715
0.0151672
0.0151217
0.0149566
0.0149695
0.0152155
0.0159175
0.0163948
0.0164836
0.0166008
0.014915
0.0150203
0.0149958
0.0149179
0.0149612
0.0152489
0.0158554
0.0161922
0.0162205
0.0163438
0.0145397
0.0147096
0.0147689
0.0148152
0.0149607
0.0153657
0.0158114
0.0159936
0.0159867
0.0159535
0.0145822
0.0146068
0.0146593
0.0147597
0.0150019
0.0153422
0.0155811
0.0156601
0.015659
0.0156501
0.0146749
0.014622
0.014653
0.0147375
0.0149281
0.0151668
0.015364
0.0154626
0.0155072
0.0155509
0.0152841
0.0150459
0.0150289
0.0150734
0.0151918
0.0153304
0.0154214
0.0154636
0.0155093
0.0155738
0.0159519
0.0157627
0.0156148
0.0156195
0.0156495
0.015675
0.015677
0.0156657
0.0156703
0.015692
0.0162434
0.0161018
0.0160133
0.0159762
0.0159227
0.015859
0.0157928
0.0157502
0.0157245
0.0157261
0.0163166
0.0162133
0.0161486
0.0160607
0.0159658
0.0158872
0.0158058
0.0157683
0.0157171
0.0157041
0.016307
0.0162229
0.0159579
0.015674
0.01549
0.0154522
0.0154785
0.0154428
0.0153821
0.01534
0.0138204
0.0133833
0.0130583
0.0130708
0.0132885
0.0139585
0.0146959
0.0148971
0.0150564
0.0153705
0.0137278
0.0135459
0.013209
0.0131244
0.0132163
0.0136686
0.0144555
0.0147051
0.0146464
0.0149553
0.013498
0.0135056
0.0133804
0.0131631
0.0132032
0.0135637
0.0142699
0.0144601
0.0144436
0.014342
0.0133268
0.01337
0.0132843
0.0131113
0.0131628
0.0135263
0.0140313
0.0141122
0.0140478
0.014
0.0129739
0.0129746
0.0129414
0.0129436
0.0130686
0.0134947
0.0137532
0.0137528
0.0137755
0.0139048
0.0132327
0.012908
0.0128663
0.0129072
0.0130461
0.0133186
0.0134526
0.0135364
0.0136971
0.0141033
0.0140159
0.0132807
0.0130248
0.013011
0.0130714
0.0131726
0.0133408
0.0134934
0.0138277
0.014254
0.0147854
0.0142429
0.0137317
0.0134165
0.0133208
0.0133433
0.0134249
0.0135975
0.0140093
0.0143199
0.0151063
0.0148084
0.014491
0.0142353
0.0140264
0.0138659
0.0138739
0.0139479
0.0141701
0.0143501
0.0152809
0.0150954
0.0149129
0.0147193
0.0145638
0.0143979
0.0142668
0.0142696
0.014325
0.0143645
0.0127464
0.0124562
0.0120853
0.0119205
0.0120785
0.0123038
0.0124941
0.0127555
0.0131473
0.0135175
0.0128718
0.0125795
0.0120502
0.0118284
0.011951
0.0121502
0.0122612
0.0123303
0.0125243
0.0128732
0.0127911
0.0125578
0.012034
0.0117673
0.0118672
0.0120289
0.0121091
0.0121399
0.012306
0.0125812
0.0126169
0.0123322
0.0118552
0.0117411
0.011798
0.0118703
0.0119032
0.0119865
0.0122158
0.0124706
0.0122809
0.0119907
0.0118053
0.0117472
0.0117638
0.0117843
0.0118161
0.0119464
0.0122375
0.0125221
0.0123575
0.0121011
0.0119211
0.011825
0.0117892
0.0117817
0.0118319
0.0120572
0.0124531
0.012813
0.0128831
0.0125028
0.012282
0.0121247
0.0120123
0.011964
0.0120146
0.0122971
0.0127021
0.0130741
0.0137182
0.0132385
0.012804
0.0125006
0.0123348
0.0122217
0.0122431
0.0125778
0.0129552
0.0132332
0.0141367
0.0137625
0.013397
0.0130244
0.0127251
0.0124902
0.0124427
0.0128793
0.0132008
0.0133606
0.0144685
0.014159
0.0138462
0.0135059
0.0131328
0.0127731
0.0126428
0.0131001
0.0133192
0.0133665
0.0130029
0.0123848
0.0120307
0.0115853
0.0113993
0.0113843
0.0113867
0.0114818
0.0116778
0.012066
0.0128635
0.0123259
0.0118067
0.0114173
0.0112599
0.0112382
0.0112223
0.0112938
0.0114994
0.0118463
0.0125821
0.0122412
0.0117351
0.011386
0.0112003
0.0111268
0.0110868
0.0111535
0.0113648
0.0117088
0.0122037
0.0119914
0.0116257
0.0113413
0.0111619
0.0110581
0.0110211
0.0110908
0.0113121
0.0116555
0.0121729
0.0118629
0.0115794
0.0113355
0.0111646
0.0110487
0.0110195
0.0110938
0.011313
0.0116705
0.0127803
0.0121871
0.0117899
0.0115096
0.0113232
0.0111848
0.0111344
0.0111928
0.0113827
0.0117962
0.0134937
0.0130181
0.0125266
0.0120853
0.0117487
0.0115143
0.0113584
0.0113786
0.0115309
0.0119954
0.0138996
0.0135353
0.0131579
0.0127364
0.0123265
0.0119783
0.0116772
0.0116229
0.0117367
0.0122359
0.0142108
0.0138807
0.0135649
0.013246
0.0128573
0.0125145
0.0121315
0.0119108
0.0119611
0.012426
0.0143014
0.0139524
0.0136268
0.0133628
0.0130584
0.0128015
0.0124945
0.0122171
0.0122222
0.0125107
0.0130932
0.0127212
0.012185
0.011637
0.0112622
0.0111067
0.0111183
0.0112083
0.0114368
0.0117361
0.0126838
0.0121566
0.0115666
0.0111247
0.0108792
0.0108023
0.0108344
0.0109464
0.01118
0.0115958
0.0121332
0.0116392
0.0111961
0.0108882
0.010712
0.0106606
0.0107017
0.0108253
0.011061
0.0114817
0.0119687
0.011497
0.0111158
0.0108537
0.0106898
0.0106292
0.0106671
0.0107905
0.0110227
0.0114405
0.0123372
0.0117953
0.0113919
0.011109
0.0109131
0.0107824
0.0107921
0.0108755
0.0110706
0.0114489
0.0129031
0.0123246
0.0118607
0.0114992
0.0112426
0.0110484
0.0109959
0.0110479
0.0112009
0.0115207
0.0134463
0.0128871
0.0123722
0.0119393
0.0116041
0.0113759
0.011249
0.0112772
0.0114027
0.0117082
0.0137172
0.0132041
0.0127202
0.0122899
0.0119119
0.011646
0.0114878
0.0115083
0.0116324
0.0119889
0.0136936
0.013208
0.0127707
0.012385
0.0120449
0.0117945
0.0116764
0.0117172
0.0118881
0.0123658
0.01342
0.0130365
0.0127046
0.0124163
0.0121762
0.011982
0.0119186
0.0119848
0.0122203
0.0127636
0.0130921
0.0126869
0.0121559
0.0116845
0.0113454
0.011167
0.011178
0.0112723
0.0115081
0.0118262
0.0124258
0.0119637
0.0114877
0.0110893
0.0108316
0.0107144
0.010742
0.0108575
0.0111101
0.0115788
0.0120116
0.0114875
0.0110793
0.0107826
0.010588
0.0104945
0.0105256
0.0106455
0.0109159
0.0114642
0.0118547
0.0113637
0.0109864
0.0107132
0.0105273
0.0104269
0.0104521
0.0105669
0.0108436
0.0114255
0.0120359
0.011525
0.0111425
0.0108477
0.0106346
0.0104881
0.0104804
0.0105672
0.0108389
0.01143
0.012327
0.0118172
0.0114241
0.011091
0.0108316
0.0106608
0.0106244
0.0106977
0.0109266
0.0114533
0.012585
0.0120592
0.0116762
0.0113472
0.0110767
0.0108929
0.0108438
0.0109128
0.0111081
0.0115691
0.0127065
0.0122219
0.0118997
0.0116051
0.0113499
0.0111857
0.0111408
0.0112171
0.0114032
0.0118269
0.0127759
0.0124274
0.0121544
0.0118901
0.0116892
0.0115777
0.0115388
0.0116107
0.0118027
0.0122609
0.0129306
0.0127528
0.0124902
0.012299
0.0121833
0.0121437
0.0121086
0.0121151
0.0122596
0.012625
0.013846
0.0135249
0.0130481
0.0126933
0.0124115
0.0121958
0.0120778
0.0121
0.0122282
0.0125678
0.0129926
0.0126669
0.0122813
0.0119329
0.0116233
0.0113714
0.0113396
0.0114193
0.0116899
0.0123624
0.0124614
0.0119907
0.0115945
0.0112421
0.0109509
0.0108076
0.0108338
0.0109851
0.0113759
0.0122109
0.0122597
0.0117115
0.0112488
0.0108947
0.0106506
0.0105528
0.010593
0.010759
0.0111735
0.01207
0.012252
0.0116988
0.0112231
0.010861
0.0106127
0.0104976
0.010529
0.010677
0.0110653
0.0119036
0.012491
0.0119564
0.0114689
0.0110827
0.0108089
0.0106434
0.0106508
0.0107504
0.0110518
0.0117465
0.0127842
0.0122668
0.0117914
0.0114117
0.0111333
0.010953
0.0109183
0.0109824
0.0111901
0.0117274
0.0131329
0.0126209
0.0121719
0.0118237
0.0115691
0.011411
0.011338
0.0113719
0.011506
0.0118613
0.0135031
0.0129985
0.0126055
0.012318
0.0121201
0.0120135
0.0119454
0.0119425
0.0120067
0.0122021
0.0138691
0.0134107
0.0131075
0.0129021
0.0127834
0.0127633
0.0127629
0.0127014
0.0126923
0.0127081
0.0157047
0.0150914
0.0145703
0.0141415
0.013685
0.0133018
0.0132444
0.013351
0.0137872
0.014766
0.0148129
0.0141642
0.0136189
0.0131461
0.0126978
0.0124662
0.0124989
0.0127316
0.0134423
0.0146787
0.0143502
0.013638
0.0130004
0.0124458
0.0120314
0.0118843
0.0119607
0.0122756
0.0130687
0.0142549
0.0138954
0.0131254
0.012482
0.0119977
0.0116791
0.0115854
0.0116722
0.0119737
0.0127065
0.0138163
0.0136888
0.0129212
0.0123261
0.0118882
0.0115983
0.0115016
0.0115748
0.0118379
0.0124392
0.0134472
0.0137774
0.013054
0.0124869
0.0120628
0.0117821
0.0116477
0.0116894
0.0118735
0.0123231
0.0132301
0.0140931
0.0133952
0.0128552
0.0124568
0.0121966
0.0120521
0.0120639
0.0121743
0.0124806
0.0132
0.0144928
0.0138168
0.0133267
0.0129867
0.0127805
0.0126944
0.0126737
0.0127271
0.0128956
0.0133586
0.0149436
0.0143172
0.0139039
0.0136417
0.0135231
0.0135272
0.0135468
0.0135446
0.0135876
0.0137997
0.0154657
0.0148997
0.0145794
0.0144101
0.0144041
0.0145241
0.0146327
0.0146158
0.0145092
0.0145437
0.0191931
0.0183784
0.0177346
0.0171132
0.0165655
0.0163634
0.0164273
0.0167261
0.0174476
0.0186606
0.0182263
0.0173802
0.0166403
0.0159933
0.015542
0.0154288
0.0155641
0.0160332
0.0170607
0.0184528
0.01785
0.0167912
0.0158879
0.0151908
0.0147548
0.0147007
0.0149152
0.0155277
0.0166417
0.0180189
0.0174622
0.016309
0.0154143
0.0147507
0.014367
0.0143384
0.0145691
0.0151921
0.0163068
0.0176309
0.0171766
0.0161081
0.0152644
0.0146299
0.0142661
0.0142353
0.0144515
0.0150413
0.0160664
0.0173396
0.0171252
0.0161664
0.0153919
0.0148035
0.0144657
0.0144205
0.0145866
0.0150423
0.0159653
0.0171985
0.0173909
0.0165142
0.0158008
0.0152867
0.0150026
0.0149617
0.0150829
0.0153986
0.0160732
0.0172337
0.0178401
0.017003
0.0163803
0.0159882
0.0158076
0.0158073
0.0159074
0.0161049
0.0164914
0.0174484
0.0184
0.0176323
0.0171268
0.016863
0.0167963
0.0168665
0.0170064
0.01713
0.0173105
0.0179635
0.0190552
0.0183887
0.0180125
0.0178636
0.0178919
0.0180725
0.0183144
0.018493
0.0185853
0.0189727
0.0217907
0.0208407
0.0200337
0.0193558
0.0189771
0.0189839
0.0192636
0.0199232
0.0208627
0.0220818
0.0209407
0.0199756
0.0190937
0.0184359
0.0181037
0.0181374
0.018518
0.0193071
0.020377
0.0216726
0.0205112
0.0193531
0.0184058
0.0177827
0.0174911
0.0175367
0.0179706
0.018806
0.0199061
0.0211517
0.0201023
0.0189514
0.0180807
0.0174858
0.0172066
0.0172377
0.0176352
0.018408
0.0194704
0.0206443
0.0199352
0.0188377
0.0180157
0.0174241
0.0171387
0.0171473
0.0175086
0.0182053
0.019186
0.0203291
0.0200516
0.0190778
0.018303
0.0176862
0.0173566
0.0173106
0.0175804
0.0181744
0.0191053
0.020236
0.020526
0.0196513
0.0188807
0.0182431
0.0178771
0.0177956
0.0179894
0.0184483
0.019271
0.0203836
0.0212122
0.0203608
0.0196053
0.0189984
0.0186504
0.0185654
0.0187354
0.019096
0.0197211
0.0207365
0.0220107
0.0211563
0.020442
0.0198976
0.0196165
0.019565
0.0197749
0.020136
0.0205865
0.021394
0.0228923
0.0220657
0.0213945
0.0209286
0.0207177
0.0207159
0.0210036
0.0214552
0.0219476
0.0225541
0.0223809
0.0213812
0.020528
0.0199112
0.0196422
0.0197394
0.0202203
0.021015
0.0219877
0.0231478
0.0215813
0.0205517
0.0196276
0.019039
0.0188204
0.0189433
0.01948
0.0203104
0.0212994
0.0224519
0.0210457
0.0198804
0.0189677
0.0184264
0.0182327
0.0183547
0.0188889
0.019713
0.020694
0.0218254
0.020636
0.01952
0.0186739
0.0181386
0.0179344
0.0180102
0.0184688
0.0192182
0.020169
0.0212529
0.0205107
0.0194359
0.018625
0.0180731
0.0178463
0.0178873
0.0182906
0.0189727
0.0198859
0.0209589
0.0207287
0.0197381
0.0189731
0.0183249
0.0180064
0.0179763
0.0183088
0.0189482
0.0198428
0.0209113
0.0212967
0.0204038
0.0196394
0.0188985
0.0184686
0.0183848
0.0186542
0.019231
0.0200751
0.0211381
0.0220923
0.0212433
0.0204381
0.0196613
0.0191928
0.0190851
0.0193358
0.0198622
0.020596
0.0215807
0.0230506
0.0221526
0.0213006
0.0205515
0.0201384
0.0200482
0.020327
0.0208549
0.0214952
0.0223153
0.0240923
0.0231253
0.0222694
0.0215885
0.0212456
0.0211843
0.0215077
0.0220934
0.0227589
0.0234137
0.0161349
0.0157899
0.015493
0.0152926
0.0151911
0.0151552
0.0152168
0.0154876
0.0159382
0.016507
0.0157747
0.0153632
0.0150424
0.0148799
0.0148207
0.014798
0.0148693
0.0151316
0.0155485
0.0160946
0.0155435
0.0150997
0.0148052
0.0146518
0.0145835
0.0145716
0.0146561
0.014884
0.0152464
0.0157097
0.0154023
0.0149584
0.0146869
0.0145436
0.0144766
0.0144653
0.0145363
0.014706
0.0149811
0.015329
0.0153719
0.0149161
0.0146568
0.0145162
0.0144492
0.0144332
0.0144772
0.0145935
0.0148175
0.0151407
0.01549
0.0150126
0.0147613
0.0145724
0.0144725
0.0144486
0.0144715
0.0145758
0.0147971
0.0151225
0.015795
0.0153128
0.0150508
0.0147588
0.0145648
0.0145211
0.0145467
0.014659
0.0148924
0.0152479
0.016302
0.0157764
0.0154913
0.0150723
0.0147496
0.0146588
0.0146926
0.0148247
0.0150803
0.0154916
0.01693
0.0163851
0.0159877
0.015465
0.0150551
0.0149186
0.0149449
0.0151032
0.015383
0.0157977
0.0176288
0.0170905
0.0164836
0.0158981
0.0154701
0.0153141
0.0153377
0.0155438
0.0158538
0.0161547
0.0116596
0.0116121
0.0115872
0.0115405
0.0113772
0.0112398
0.0112059
0.0112841
0.0114177
0.0115884
0.0115554
0.0114168
0.0113091
0.0112744
0.0111596
0.0110323
0.0110304
0.0111157
0.0112568
0.0114584
0.0115108
0.0112886
0.0111373
0.0110384
0.0109313
0.0108866
0.0109108
0.0110039
0.0111404
0.0113033
0.0114371
0.0111733
0.0110138
0.0108982
0.0108213
0.0108022
0.0108306
0.0109111
0.0110263
0.0111365
0.0114011
0.0111219
0.0109675
0.0108646
0.0108086
0.0107905
0.0107983
0.0108496
0.0109457
0.0110527
0.0114068
0.0111171
0.0109718
0.0108774
0.0108315
0.0108125
0.0108105
0.0108506
0.0109454
0.0110523
0.0114949
0.01121
0.0110812
0.0109603
0.010902
0.0108901
0.0108937
0.0109298
0.0110164
0.0111245
0.0116946
0.0114089
0.0112995
0.0111291
0.0110072
0.0109798
0.010993
0.011019
0.0110853
0.0112124
0.0119898
0.0117176
0.0115749
0.011356
0.0111689
0.0110909
0.0110897
0.011108
0.0111695
0.0113072
0.012318
0.0120854
0.0117681
0.0115328
0.0113403
0.011227
0.0112233
0.0112705
0.0113349
0.0114214
0.00951045
0.00950151
0.00952575
0.00952095
0.00933201
0.0092483
0.00924611
0.00926891
0.00929509
0.00936136
0.0094899
0.00943013
0.00939774
0.00939735
0.00920664
0.00912218
0.00912081
0.00914719
0.00919849
0.00930482
0.00952254
0.00941312
0.00932799
0.00923283
0.00906542
0.00902091
0.00903122
0.00907919
0.00915801
0.00927583
0.00950487
0.00934485
0.00922284
0.00909397
0.00898655
0.00895949
0.00897573
0.00903646
0.00912829
0.00923491
0.00943508
0.00926823
0.00914405
0.00903597
0.00897344
0.00895442
0.00896114
0.0090082
0.00908927
0.00917632
0.00940574
0.0092343
0.00911827
0.00903578
0.00899164
0.00897493
0.00897594
0.00901621
0.00908741
0.00916557
0.00941286
0.00924719
0.00916093
0.00909619
0.00905911
0.00904193
0.00903918
0.0090673
0.00912998
0.00921039
0.00946824
0.00933551
0.00926808
0.00920024
0.00915664
0.00912905
0.00911684
0.00912193
0.00916389
0.00925051
0.00960712
0.00951886
0.00943838
0.00934277
0.0092681
0.00922484
0.00919826
0.00918988
0.00920297
0.00927765
0.00983783
0.00974803
0.00958826
0.00948699
0.00940221
0.00932542
0.00930339
0.00930518
0.00931111
0.00934362
0.00847783
0.00843892
0.00843387
0.00845142
0.00837977
0.00829019
0.00828495
0.00831838
0.0083397
0.00838876
0.0084564
0.00838663
0.00836592
0.00836711
0.00826034
0.00818438
0.00817773
0.00820334
0.0082453
0.00833662
0.0084654
0.00838172
0.00833061
0.00828966
0.00816653
0.00810592
0.00810312
0.00813789
0.0082028
0.00831454
0.00849545
0.00838953
0.00830598
0.008223
0.00810569
0.00805944
0.00805849
0.00809522
0.00816978
0.0082809
0.00852559
0.00838757
0.00827959
0.00817419
0.00808467
0.00805448
0.00805297
0.00808204
0.00814713
0.00824613
0.00850967
0.00835957
0.00824152
0.00815081
0.00808937
0.00806522
0.00806282
0.00809197
0.00815168
0.00824199
0.0084563
0.00832772
0.00823796
0.00816911
0.00812463
0.00810407
0.00809852
0.00811804
0.00817007
0.00825481
0.00846171
0.00837146
0.00830301
0.00825525
0.00821858
0.00817711
0.00815687
0.00815894
0.00820211
0.00829084
0.00857513
0.00849855
0.00842111
0.00836582
0.00832571
0.00826822
0.00823189
0.00822627
0.00825004
0.00832241
0.00876904
0.00867046
0.00857583
0.00850455
0.00845333
0.0083816
0.00833623
0.00833182
0.00834314
0.00837742
0.00793346
0.00788659
0.00784553
0.00782035
0.00778289
0.00773995
0.00774274
0.00778095
0.00781626
0.00786639
0.00790611
0.00783865
0.00779531
0.00777445
0.00772766
0.00768234
0.00767797
0.00770203
0.00774317
0.0078141
0.0079039
0.00782459
0.00777044
0.0077414
0.00768384
0.00763881
0.00763211
0.00765199
0.00769588
0.00777076
0.00790826
0.00782553
0.00776469
0.0077203
0.00765477
0.00761454
0.00760668
0.00762108
0.00766026
0.00772151
0.00792222
0.00783584
0.00777114
0.00771089
0.00764643
0.00761598
0.00760831
0.00761776
0.00765062
0.00770257
0.00796184
0.0078639
0.00778048
0.0077088
0.00765241
0.00762657
0.00761846
0.00762754
0.00765799
0.00770561
0.00796515
0.00786518
0.00778357
0.00771861
0.00767489
0.00765249
0.00764273
0.00764523
0.00767166
0.00772056
0.00796336
0.00788034
0.00781262
0.00776768
0.00773881
0.0077077
0.00768235
0.00767824
0.00770373
0.00775975
0.00803922
0.00796116
0.00790101
0.00785863
0.00782223
0.00777461
0.00773476
0.00772845
0.00775043
0.00780138
0.00816501
0.00808254
0.008016
0.00795582
0.00791367
0.00786033
0.00780117
0.00779631
0.00782139
0.00785592
0.00767252
0.00763201
0.00759236
0.00755813
0.00753123
0.00751319
0.00751757
0.00754051
0.00757082
0.00760882
0.00765863
0.00760946
0.00756839
0.00753494
0.00750593
0.00748384
0.00748154
0.0074962
0.00752427
0.00756764
0.00765694
0.0076028
0.00755551
0.0075182
0.00748485
0.00746001
0.00745456
0.00746527
0.00749064
0.00753131
0.00766104
0.00760386
0.00755152
0.00750962
0.00747199
0.00744737
0.00743993
0.00744611
0.00746777
0.00750037
0.00767256
0.00761059
0.00755598
0.00751117
0.00747243
0.00744964
0.00744157
0.00744419
0.00746166
0.00748808
0.00770356
0.00763398
0.00757231
0.00751977
0.00748154
0.00746076
0.00745191
0.00745286
0.00746773
0.00749245
0.00772202
0.00765199
0.0075873
0.00753686
0.00750417
0.0074859
0.00747317
0.00747071
0.0074837
0.00750975
0.00773599
0.00767265
0.00761462
0.00757294
0.00755058
0.00752812
0.00750614
0.00749969
0.00751034
0.00753744
0.00780574
0.00773564
0.00767962
0.00764037
0.00761051
0.00757987
0.00754681
0.00753625
0.00754463
0.00757079
0.00785682
0.00780033
0.0077497
0.00770489
0.00766746
0.00763395
0.00759157
0.00757805
0.00758821
0.00760992
0.00765978
0.00761966
0.00758692
0.00755521
0.00752562
0.00750805
0.00751324
0.00753295
0.0075574
0.0075908
0.00765199
0.00760297
0.0075646
0.00753118
0.00750023
0.00747953
0.00747835
0.00749054
0.00751425
0.00755446
0.00765461
0.0076018
0.00755466
0.00751423
0.00747968
0.00745713
0.0074524
0.00746173
0.00748518
0.00752473
0.00766421
0.00760584
0.00755016
0.00750258
0.00746624
0.00744419
0.00743749
0.00744394
0.00746452
0.00749692
0.00767914
0.00761144
0.00755013
0.00750124
0.00746535
0.00744382
0.00743599
0.0074394
0.00745593
0.00748211
0.00769723
0.00762622
0.00755811
0.00750933
0.00747559
0.00745554
0.0074468
0.00744832
0.00746327
0.00748777
0.00771172
0.00764212
0.00758806
0.00753109
0.0075007
0.00748037
0.00746922
0.00746856
0.0074822
0.00750759
0.00774053
0.00767229
0.00761948
0.00757507
0.00754746
0.00752023
0.00750245
0.00749818
0.00750745
0.00753253
0.00779301
0.00772604
0.00767537
0.00763145
0.00759837
0.00757236
0.00754353
0.00753487
0.00753959
0.00756057
0.00783524
0.00778125
0.00772459
0.00768227
0.00764404
0.00761572
0.00758548
0.00757732
0.00758264
0.00759762
0.00394328
0.00340555
0.00340307
0.00333694
0.00282261
0.00282287
0.00333765
0.00340381
0.00340654
0.00394425
0.00340593
0.00282158
0.00261874
0.00253192
0.00243392
0.0024339
0.00253212
0.00261932
0.00282162
0.00340545
0.00340372
0.00261883
0.00240769
0.00233789
0.00230746
0.00230777
0.00233788
0.0024067
0.002618
0.00340308
0.0033375
0.002532
0.00233786
0.00227582
0.00225233
0.00225121
0.00227468
0.00233669
0.00253095
0.00333691
0.00282273
0.00243385
0.00230773
0.00225131
0.00222808
0.00222795
0.00225093
0.00230624
0.0024328
0.00282183
0.00282311
0.00243332
0.0023063
0.00225091
0.00222793
0.00222794
0.00225093
0.00230623
0.0024327
0.00282088
0.00333681
0.00253086
0.00233668
0.00227447
0.00225093
0.00225086
0.00227434
0.00233583
0.00252867
0.00332859
0.00340311
0.00261783
0.00240655
0.00233659
0.0023061
0.00230497
0.00233486
0.00239975
0.00261155
0.00339641
0.00340556
0.00282069
0.00261771
0.00252927
0.00243096
0.00242601
0.00252409
0.00261197
0.00281473
0.0033988
0.00394343
0.00340355
0.00340086
0.00332921
0.00281395
0.00281573
0.0033301
0.0033963
0.00339878
0.00393638
0.0024761
0.00230477
0.00227764
0.00225319
0.002153
0.00215306
0.00225334
0.0022778
0.002305
0.00247641
0.00230483
0.00214691
0.00208518
0.00205567
0.00203289
0.00203288
0.00205573
0.00208535
0.0021469
0.00230475
0.00227777
0.00208519
0.00201978
0.00199056
0.00197752
0.00197761
0.00199056
0.0020195
0.00208499
0.00227766
0.00225329
0.00205568
0.00199056
0.00196067
0.00194778
0.00194743
0.00196033
0.00199023
0.00205543
0.00225319
0.00215302
0.00203287
0.00197761
0.00194746
0.00193411
0.00193408
0.00194737
0.00197717
0.0020326
0.00215284
0.00215315
0.00203271
0.00197717
0.00194736
0.00193408
0.00193409
0.00194737
0.00197718
0.0020326
0.00215277
0.00225315
0.0020554
0.00199023
0.00196028
0.00194737
0.00194738
0.00196028
0.00199016
0.00205526
0.00225372
0.00227767
0.00208497
0.0020195
0.00199024
0.00197718
0.00197706
0.00199007
0.00201967
0.00208524
0.00227818
0.00230482
0.00214678
0.00208499
0.00205531
0.00203244
0.00203275
0.00205571
0.00208526
0.00214706
0.00230529
0.00247621
0.0023047
0.00227755
0.00225371
0.00215304
0.00215311
0.00225374
0.00227818
0.00230529
0.00247677
0.00184715
0.00179871
0.00178345
0.00177302
0.00175577
0.00175578
0.00177305
0.00178348
0.00179877
0.00184722
0.00179872
0.00175394
0.00173227
0.00172039
0.00171371
0.00171371
0.00172041
0.00173231
0.00175394
0.00179895
0.00178347
0.00173227
0.00170816
0.00169495
0.00168886
0.00168888
0.00169495
0.00170827
0.00173241
0.00178368
0.00177304
0.00172039
0.00169495
0.00168061
0.00167401
0.00167407
0.00168068
0.00169505
0.00172053
0.00177324
0.00175577
0.00171371
0.00168888
0.00167407
0.00166715
0.00166715
0.00167407
0.00168895
0.00171384
0.00175595
0.00175579
0.00171382
0.00168894
0.00167406
0.00166715
0.00166716
0.00167408
0.00168896
0.00171385
0.00175601
0.00177322
0.00172052
0.00169505
0.00168069
0.00167408
0.00167409
0.00168071
0.00169515
0.00172075
0.00177503
0.00178368
0.00173243
0.00170829
0.00169508
0.00168898
0.00168909
0.00169525
0.00171014
0.00173416
0.00178525
0.00179897
0.00175416
0.00173246
0.00172069
0.00171401
0.00171566
0.00172234
0.00173408
0.0017558
0.00180056
0.00184743
0.00179912
0.00178384
0.00177494
0.0017578
0.00175758
0.00177481
0.00178526
0.00180056
0.00184899
0.00151073
0.00149732
0.00149117
0.00148721
0.00148385
0.00148385
0.00148722
0.00149118
0.00149733
0.00151074
0.00149732
0.0014834
0.00147523
0.0014703
0.00146784
0.00146784
0.00147031
0.00147524
0.00148341
0.00149757
0.00149118
0.00147524
0.00146566
0.00145981
0.00145702
0.00145702
0.00145981
0.00146584
0.00147543
0.00149141
0.00148722
0.00147031
0.00145981
0.0014533
0.00145019
0.00145035
0.00145346
0.00145998
0.0014705
0.00148745
0.00148385
0.00146784
0.00145702
0.00145034
0.00144707
0.00144707
0.00145036
0.0014572
0.00146803
0.00148407
0.00148384
0.00146801
0.00145719
0.00145035
0.00144708
0.00144708
0.00145036
0.0014572
0.00146804
0.00148409
0.00148745
0.0014705
0.00145999
0.00145347
0.00145036
0.00145036
0.00145348
0.00146002
0.00147057
0.00148817
0.00149141
0.00147545
0.00146585
0.00145999
0.00145721
0.00145724
0.00146004
0.00146653
0.00147611
0.00149207
0.00149758
0.00148365
0.00147545
0.00147055
0.00146808
0.00146871
0.00147118
0.00147609
0.0014843
0.00149825
0.001511
0.00149762
0.00149146
0.00148813
0.00148478
0.00148472
0.0014881
0.00149207
0.00149825
0.00151167
0.00129532
0.00129135
0.00128901
0.0012875
0.00128661
0.00128661
0.00128751
0.00128901
0.00129135
0.00129533
0.00129135
0.00128658
0.00128337
0.00128134
0.00128033
0.00128033
0.00128134
0.00128337
0.00128658
0.00129151
0.00128901
0.00128338
0.0012795
0.00127701
0.00127579
0.00127578
0.001277
0.00127963
0.00128351
0.00128916
0.00128751
0.00128134
0.00127701
0.0012742
0.00127282
0.00127294
0.00127431
0.00127713
0.00128147
0.00128765
0.00128662
0.00128034
0.00127579
0.00127293
0.00127148
0.00127149
0.00127294
0.00127591
0.00128046
0.00128676
0.00128661
0.00128046
0.00127591
0.00127294
0.00127149
0.00127149
0.00127294
0.00127591
0.00128046
0.00128676
0.00128765
0.00128147
0.00127713
0.00127432
0.00127294
0.00127294
0.00127432