/*--------------------------------*- C++ -*----------------------------------*\
  =========                 |
  \\      /  F ield         | OpenFOAM: The Open Source CFD Toolbox
   \\    /   O peration     | Website:  https://openfoam.org
    \\  /    A nd           | Version:  9
     \\/     M anipulation  |
\*---------------------------------------------------------------------------*/
FoamFile
{
    format      ascii;
    class       volScalarField;
    location    "1";
    object      f12.gas;
}
// * * * * * * * * * * * * * * * * * * * * * * * * * * * * * * * * * * * * * //

dimensions      [0 0 0 0 0 0 0];

internalField   nonuniform List<scalar> 
137980
(
0.0250538
0.0272025
0.0259611
0.0250649
0.0250607
0.025124
0.0252073
0.0255356
0.0259233
0.0267099
0.0276367
0.02731
0.0268096
0.025589
0.0245323
0.0245517
0.0247867
0.0252365
0.0260213
0.0272332
0.0260523
0.0257837
0.024989
0.0248257
0.0246902
0.0250115
0.024968
0.0250999
0.0257725
0.0262062
0.0248798
0.0233698
0.0235316
0.0240081
0.0242732
0.0249906
0.0248249
0.0242018
0.0235358
0.0233525
0.0225982
0.0221707
0.0227201
0.0231418
0.0236373
0.0245477
0.0246093
0.0238929
0.0225996
0.0222764
0.0219392
0.02225
0.0226837
0.0226354
0.0235453
0.0242058
0.0241547
0.0233425
0.022177
0.0231246
0.0223243
0.0231751
0.0233215
0.0231612
0.023314
0.0236017
0.0240584
0.0234985
0.0229211
0.0250673
0.0239809
0.0245151
0.0238683
0.0231531
0.0221597
0.0224986
0.0241629
0.0242771
0.0240134
0.0256585
0.0240375
0.0246575
0.0237784
0.022115
0.0208774
0.0213491
0.0223813
0.0247302
0.0249192
0.0249632
0.0246542
0.0250555
0.0233557
0.0218813
0.0206487
0.0209742
0.0215573
0.0230975
0.0244324
0.0248354
0.0186116
0.0195847
0.019598
0.019478
0.0194376
0.0195171
0.0196114
0.0200519
0.0202553
0.0196281
0.0200494
0.0199188
0.0199986
0.019975
0.0201587
0.0205665
0.0211401
0.0214251
0.0212872
0.020484
0.0199697
0.019924
0.0201634
0.0202173
0.0202672
0.0207756
0.0213259
0.0215455
0.0214626
0.0211464
0.0193406
0.0196456
0.0199341
0.0200446
0.0201136
0.0206144
0.0209464
0.0210693
0.0209896
0.0206173
0.0189613
0.0193297
0.0197727
0.0198302
0.0198847
0.020249
0.0203876
0.0204156
0.0203906
0.0202139
0.018829
0.0193792
0.0197698
0.0197531
0.0197653
0.0198791
0.0199609
0.019963
0.0199591
0.0200318
0.0193254
0.0200118
0.0199698
0.0196244
0.0196065
0.0196525
0.019656
0.0196305
0.0195968
0.0198648
0.0200349
0.0201179
0.0196624
0.0194284
0.0195081
0.0195336
0.0196086
0.0196224
0.0195448
0.0196179
0.0198035
0.019817
0.0194457
0.0192634
0.0192184
0.0194341
0.0193662
0.019609
0.0196515
0.0196723
0.0189897
0.0188885
0.0188593
0.0189
0.0189661
0.0192752
0.0192629
0.0196377
0.0195196
0.0195148
0.0173985
0.0170636
0.0170664
0.017038
0.0169927
0.016962
0.016961
0.0170028
0.0169918
0.0171057
0.0171138
0.0171986
0.0171721
0.0171252
0.017041
0.0170013
0.0170021
0.0170365
0.0169436
0.0170006
0.017338
0.0173132
0.0172027
0.0171298
0.0170444
0.0170053
0.0169594
0.0168841
0.0168921
0.0171527
0.0174029
0.0173468
0.017181
0.0170633
0.0169441
0.0168652
0.0167748
0.0167677
0.0168989
0.0172038
0.0173867
0.0172077
0.0170241
0.0169384
0.0169018
0.0168301
0.0167553
0.0167519
0.0168458
0.0172194
0.0170781
0.0170531
0.0170835
0.0170712
0.0169729
0.016854
0.0167963
0.0168178
0.0169264
0.0169857
0.0171161
0.0171913
0.0172309
0.0171223
0.0169824
0.0169151
0.0169573
0.0170988
0.0171917
0.0171306
0.0172999
0.0174031
0.0172041
0.0170569
0.0169581
0.0169907
0.0172297
0.0173324
0.0172931
0.0172562
0.017352
0.0172343
0.0170155
0.017014
0.0169867
0.0172152
0.0174228
0.0174008
0.0172331
0.0172108
0.0169842
0.0168974
0.0170195
0.0170238
0.0170997
0.0174053
0.01747
0.0173691
0.0170029
0.0170722
0.0167081
0.0168974
0.0170857
0.0171481
0.0171544
0.0170404
0.0167183
0.0166734
0.0166427
0.0165645
0.0166783
0.0167952
0.0169407
0.016945
0.0168261
0.0166562
0.0166718
0.0167077
0.0166889
0.0166178
0.0166253
0.0166359
0.0166688
0.0166435
0.016685
0.016785
0.0168004
0.016764
0.0167005
0.016647
0.0166166
0.0165968
0.0166176
0.0167964
0.0169151
0.016904
0.0168428
0.0167608
0.0166785
0.0166591
0.0167486
0.0167784
0.0168887
0.0170322
0.0170078
0.0169395
0.0168211
0.0167095
0.0166456
0.0166317
0.0170422
0.0170732
0.0171757
0.0171302
0.0170337
0.0169023
0.0167508
0.0166757
0.0166265
0.0166133
0.0173475
0.0173704
0.0173044
0.0171311
0.0169642
0.0168183
0.0167185
0.0166675
0.0166208
0.0166008
0.0175736
0.0174796
0.0171951
0.0169724
0.0169082
0.0167914
0.0167197
0.0166689
0.0166235
0.0166087
0.0176026
0.0172134
0.0169475
0.0169481
0.0169155
0.0168018
0.0167711
0.0167238
0.0166922
0.0166904
0.0171348
0.016663
0.0169615
0.0170446
0.0170073
0.016904
0.0169253
0.0167936
0.0168697
0.0168827
0.0163944
0.0162248
0.0161302
0.0161121
0.0161272
0.01618
0.0162834
0.0163239
0.0163308
0.0163243
0.016532
0.0163121
0.0162
0.0161984
0.016245
0.0163288
0.0163264
0.0162939
0.0162474
0.0162451
0.0166008
0.0162534
0.0162201
0.0162506
0.0163595
0.0163405
0.0162926
0.0161707
0.0161234
0.0161329
0.0167212
0.0162734
0.0162685
0.0163579
0.0163512
0.0163095
0.0162103
0.0160943
0.0160853
0.016111
0.016846
0.0163823
0.0163559
0.0163581
0.0163462
0.0163025
0.016181
0.0160882
0.0160967
0.0161814
0.0169421
0.0166092
0.0165424
0.0165072
0.0164272
0.01633
0.0161586
0.0161176
0.0161989
0.0163369
0.0170684
0.0168802
0.0167735
0.0165724
0.0164461
0.0162724
0.016147
0.0162085
0.0164097
0.016398
0.0171083
0.0170051
0.0167004
0.0164414
0.0163709
0.0162208
0.0161899
0.0164688
0.0165044
0.0164291
0.0170814
0.0166947
0.0162874
0.0163867
0.0163888
0.0162299
0.016525
0.0165964
0.016595
0.0164434
0.0169417
0.0159569
0.0162201
0.0165563
0.0166566
0.0165689
0.0166891
0.0167082
0.016658
0.0164852
0.0147405
0.0147706
0.0148404
0.0150497
0.0154246
0.015767
0.0159513
0.0160277
0.0160099
0.0160603
0.0148218
0.0149181
0.0151955
0.015523
0.0157534
0.0158989
0.0159713
0.0159532
0.0158508
0.015838
0.0149718
0.0150784
0.0153882
0.015658
0.0158217
0.0159036
0.0158892
0.0158263
0.0156881
0.0156445
0.0151007
0.0152627
0.0155088
0.0157206
0.0158219
0.0158193
0.0157787
0.0157285
0.0156359
0.0156079
0.0155347
0.0156798
0.015776
0.015822
0.015824
0.0157975
0.0157475
0.0157134
0.0156313
0.0156148
0.0162675
0.016197
0.0161226
0.0160537
0.0159974
0.01588
0.0158268
0.0157373
0.0156492
0.0156317
0.0164723
0.0163822
0.0162752
0.0161786
0.0160808
0.0159552
0.0158731
0.0157363
0.0156551
0.0156262
0.0164447
0.0163761
0.0162741
0.0161897
0.0160442
0.0159522
0.0157768
0.0156352
0.0156063
0.0155778
0.016232
0.0161686
0.0160379
0.0158528
0.0157386
0.0155987
0.0155434
0.0155735
0.0155707
0.0155529
0.0155376
0.0152251
0.0151403
0.0152386
0.0154262
0.0154455
0.015481
0.0155492
0.0155454
0.015543
0.0140752
0.0140731
0.0140255
0.0138448
0.013857
0.0141278
0.0149147
0.0154223
0.0155087
0.0156102
0.0138009
0.0139216
0.013896
0.0138044
0.0138492
0.0141695
0.0148524
0.0152269
0.0152632
0.0153737
0.0133835
0.0135713
0.0136301
0.0136804
0.0138439
0.0143065
0.0148141
0.0150337
0.0150306
0.0149989
0.0134185
0.0134458
0.0135029
0.0136153
0.0138935
0.0142841
0.0145666
0.0146835
0.0146886
0.014683
0.0135008
0.0134519
0.0134866
0.0135807
0.0137939
0.0140785
0.0143256
0.0144623
0.0145187
0.0145667
0.0141245
0.013899
0.0139008
0.013959
0.0141112
0.0142986
0.0144154
0.0144711
0.0145176
0.0145853
0.0149269
0.0147284
0.0145882
0.0145992
0.014646
0.0146778
0.0146782
0.0146674
0.0146613
0.0146774
0.0152607
0.0151141
0.0150218
0.0149869
0.0149243
0.0148613
0.0147873
0.0147437
0.0147026
0.0147002
0.0153224
0.0152212
0.0151544
0.0150604
0.0149537
0.0148623
0.0147596
0.0147142
0.0146357
0.0146196
0.0152896
0.0151964
0.0149
0.0145766
0.0143744
0.0143333
0.0143646
0.0143247
0.0142518
0.014205
0.0127415
0.012304
0.0119694
0.0119847
0.0122099
0.0129404
0.0137512
0.0139516
0.014082
0.0143916
0.0126419
0.0124626
0.0121224
0.0120405
0.0121328
0.0126198
0.0134928
0.0137684
0.013691
0.0139863
0.0123949
0.0124177
0.0122931
0.0120773
0.0121179
0.0125076
0.0132929
0.0135072
0.0134904
0.0133735
0.0122196
0.012275
0.0121946
0.0120219
0.0120738
0.0124694
0.0130395
0.0131347
0.013067
0.0129817
0.0118605
0.0118695
0.0118447
0.0118464
0.0119774
0.0124449
0.0127401
0.0127407
0.0127468
0.0128697
0.0121234
0.0118023
0.0117639
0.0118056
0.0119495
0.0122532
0.0123963
0.0124788
0.0126471
0.0130608
0.0129213
0.0121786
0.0119216
0.0119079
0.0119711
0.012074
0.0122552
0.0124179
0.0127764
0.0131962
0.013729
0.0131653
0.0126409
0.0123153
0.0122225
0.0122457
0.0123297
0.0125095
0.0129431
0.0132558
0.0140638
0.0137605
0.0134366
0.0131707
0.0129555
0.0127921
0.0128002
0.012877
0.013112
0.0132846
0.0142317
0.0140543
0.0138723
0.0136741
0.0135153
0.0133459
0.0132103
0.013213
0.013269
0.0133012
0.0116411
0.0113546
0.0110036
0.0108539
0.0110141
0.0112416
0.0114317
0.011684
0.0121053
0.0124844
0.0117703
0.0114875
0.0109758
0.0107688
0.010892
0.01109
0.0112015
0.011258
0.0114481
0.0118066
0.011694
0.011469
0.0109641
0.0107124
0.0108174
0.0109758
0.0110486
0.0110667
0.0112248
0.0114994
0.0115253
0.0112529
0.0107944
0.0106881
0.0107462
0.0108125
0.0108392
0.0109091
0.0111327
0.0113843
0.0112009
0.0109235
0.0107479
0.0106943
0.0107077
0.010722
0.0107473
0.0108687
0.0111545
0.0114361
0.0112806
0.0110309
0.0108637
0.0107688
0.0107304
0.010719
0.0107615
0.0109791
0.0113715
0.0117287
0.0118087
0.0114317
0.0112175
0.0110667
0.0109549
0.0109006
0.0109408
0.0112149
0.0116196
0.0119967
0.0126595
0.0121724
0.0117318
0.0114343
0.0112741
0.0111567
0.0111645
0.0114899
0.0118737
0.0121552
0.0130857
0.0127122
0.0123406
0.0119588
0.01166
0.0114257
0.0113581
0.0117849
0.0121123
0.0122848
0.0134153
0.013113
0.0128038
0.0124578
0.0120715
0.0117024
0.0115596
0.0119991
0.0122141
0.0122724
0.0119118
0.0112854
0.0109449
0.0105141
0.0103417
0.0103304
0.0103241
0.010405
0.0105852
0.0109513
0.0117776
0.011243
0.0107305
0.0103576
0.0102148
0.0101976
0.0101748
0.0102355
0.0104221
0.0107498
0.0115006
0.0111689
0.0106698
0.0103362
0.0101629
0.010096
0.0100487
0.0101059
0.0102987
0.0106243
0.0111276
0.0109292
0.0105698
0.0103013
0.0101314
0.0100324
0.0099878
0.0100483
0.0102509
0.0105765
0.0111062
0.0108079
0.0105352
0.0103046
0.0101383
0.0100251
0.00998857
0.0100555
0.0102584
0.0105989
0.0117376
0.0111461
0.0107525
0.0104809
0.0102977
0.0101609
0.0101018
0.0101535
0.0103289
0.0107208
0.0124612
0.0119937
0.0115053
0.0110684
0.0107314
0.0104949
0.0103236
0.0103353
0.0104718
0.0109137
0.0128565
0.0125043
0.0121353
0.011718
0.011309
0.010964
0.0106498
0.0105711
0.0106718
0.0111452
0.0131769
0.0128545
0.0125482
0.012237
0.0118472
0.0115063
0.0111147
0.0108569
0.0108902
0.0113213
0.0132583
0.0129214
0.0126023
0.0123486
0.0120425
0.0117862
0.0114832
0.0111683
0.0111461
0.0114001
0.0119984
0.0116365
0.0111067
0.0105633
0.0101974
0.0100459
0.0100555
0.0101377
0.0103492
0.0106295
0.011588
0.0110727
0.0104959
0.0100714
0.00983871
0.00976511
0.00979451
0.00989837
0.0101157
0.0105052
0.0110423
0.0105664
0.0101422
0.00985136
0.00968684
0.00963746
0.00967548
0.00979055
0.0100102
0.0104053
0.0108839
0.010433
0.0100704
0.00982474
0.00967189
0.00961276
0.00964754
0.0097622
0.00997869
0.010371
0.0112723
0.010741
0.0103536
0.0100864
0.00990021
0.0097738
0.0097806
0.00985681
0.0100372
0.010389
0.0118603
0.0112877
0.0108327
0.0104823
0.0102331
0.0100445
0.00998434
0.0100303
0.010169
0.0104606
0.0124172
0.0118643
0.0113528
0.0109271
0.0105962
0.0103733
0.0102375
0.010259
0.0103691
0.0106461
0.0126909
0.0121862
0.0117072
0.0112824
0.0109016
0.0106375
0.0104694
0.0104829
0.0105905
0.0109166
0.012656
0.012179
0.0117437
0.011364
0.011022
0.010772
0.010644
0.0106776
0.0108302
0.0112769
0.0123536
0.0119811
0.0116556
0.0113708
0.0111313
0.010943
0.0108702
0.0109272
0.011141
0.0116561
0.0119878
0.0115859
0.0110655
0.0106062
0.0102786
0.0101023
0.0101097
0.0101946
0.0104102
0.0107072
0.0113179
0.0108743
0.0104171
0.0100378
0.00979422
0.00967957
0.00970347
0.00980841
0.0100405
0.0104816
0.010917
0.0104176
0.0100309
0.00975156
0.00956897
0.00947741
0.00950426
0.00961308
0.00986304
0.0103795
0.010772
0.010305
0.00994758
0.00969045
0.00951591
0.00941763
0.00943796
0.0095415
0.0097982
0.010349
0.0109597
0.0104719
0.0101075
0.00982802
0.00962714
0.00948538
0.00946885
0.00954723
0.0097995
0.0103619
0.011254
0.0107652
0.0103872
0.0100674
0.00981927
0.00965281
0.00960978
0.00967401
0.00988434
0.0103857
0.0115148
0.0110058
0.0106367
0.0103201
0.0100584
0.00987904
0.00982176
0.00988097
0.0100577
0.0104946
0.0116335
0.0111616
0.010854
0.0105718
0.0103239
0.010162
0.0101082
0.0101731
0.0103402
0.0107378
0.011692
0.0113577
0.0111012
0.0108473
0.0106515
0.0105406
0.0104926
0.0105506
0.0107235
0.0111608
0.0118344
0.0116763
0.011426
0.0112417
0.0111305
0.0110904
0.0110465
0.0110346
0.0111612
0.0115044
0.0127101
0.0124041
0.0119361
0.0115929
0.0113149
0.0110975
0.0109663
0.0109806
0.0110926
0.0114046
0.0118512
0.0115506
0.0111826
0.0108488
0.0105473
0.0102978
0.0102582
0.0103297
0.0105812
0.0112209
0.0113359
0.0108884
0.0105126
0.0101774
0.00989868
0.00975957
0.00978259
0.00992186
0.0102883
0.0110886
0.0111476
0.0106252
0.010185
0.00984903
0.00961735
0.00952298
0.00955948
0.009713
0.010102
0.0109648
0.0111503
0.0106217
0.0101666
0.00982232
0.00958582
0.00947445
0.00950232
0.00963839
0.0100021
0.0108086
0.0113915
0.0108807
0.0104125
0.0100429
0.00978101
0.00961995
0.00962417
0.00971306
0.0099918
0.0106533
0.0116836
0.0111884
0.0107298
0.0103653
0.0100974
0.00992307
0.00988133
0.00993699
0.0101252
0.0106265
0.01203
0.0115363
0.0111016
0.0107668
0.0105214
0.0103679
0.0102882
0.010313
0.0104281
0.0107507
0.0123961
0.0119025
0.0115227
0.0112474
0.0110576
0.0109528
0.0108842
0.0108579
0.0109084
0.0110737
0.012751
0.0122983
0.0120087
0.011815
0.0117032
0.0116858
0.0116794
0.0116019
0.0115664
0.0115635
0.0144735
0.0138707
0.013363
0.0129454
0.0124913
0.0121035
0.0120365
0.0121331
0.0125471
0.0134992
0.0135799
0.0129561
0.0124324
0.0119761
0.0115372
0.0113063
0.011334
0.0115503
0.012231
0.0134489
0.0131269
0.0124469
0.011836
0.0113028
0.0109039
0.0107598
0.0108293
0.0111234
0.0118803
0.0130414
0.0126837
0.0119485
0.0113362
0.0108765
0.0105735
0.0104821
0.010562
0.0108431
0.0115362
0.0126127
0.0124844
0.0117532
0.0111896
0.0107755
0.0105006
0.0104067
0.0104736
0.0107181
0.0112819
0.0122522
0.0125755
0.0118879
0.0113517
0.010951
0.0106856
0.0105547
0.0105912
0.0107589
0.0111762
0.012037
0.0128911
0.0122273
0.011716
0.011339
0.0110924
0.0109513
0.0109579
0.0110531
0.011331
0.0120035
0.0132906
0.0126445
0.0121802
0.011859
0.0116635
0.0115815
0.0115498
0.0115902
0.0117332
0.0121535
0.0137409
0.0131375
0.012747
0.0125004
0.0123902
0.0123942
0.0124055
0.0123792
0.0124024
0.0125822
0.0142578
0.0137079
0.013407
0.0132501
0.0132509
0.0133716
0.013467
0.0134343
0.0132854
0.0132945
0.0177885
0.0169781
0.0163491
0.0157323
0.0151798
0.0149714
0.0150282
0.0153102
0.0160095
0.0172191
0.016808
0.0159879
0.0152695
0.0146365
0.0141927
0.0140787
0.0142058
0.0146561
0.015667
0.0170589
0.0164522
0.0154197
0.0145405
0.0138659
0.0134463
0.0133924
0.0135945
0.0141807
0.0152725
0.0166388
0.016079
0.0149519
0.0140883
0.0134522
0.0130849
0.0130563
0.0132745
0.0138687
0.0149565
0.0162617
0.0157943
0.0147586
0.0139482
0.0133419
0.0129947
0.0129644
0.0131683
0.0137292
0.0147261
0.0159785
0.0157411
0.014819
0.0140801
0.0135209
0.0132004
0.0131558
0.0133098
0.0137368
0.014626
0.0158401
0.0160061
0.0151694
0.0144887
0.0140006
0.0137319
0.0136904
0.0137994
0.0140872
0.0147251
0.0158696
0.0164596
0.015659
0.0150652
0.0146959
0.0145276
0.0145253
0.0146126
0.0147798
0.0151306
0.016063
0.0170274
0.0162885
0.0158093
0.0155647
0.0155066
0.0155754
0.015701
0.0157922
0.0159324
0.0165493
0.0176934
0.0170431
0.0166909
0.0165561
0.0165926
0.0167749
0.0170065
0.0171551
0.0172008
0.017545
0.0202704
0.0193249
0.0185235
0.0178473
0.017471
0.0174755
0.0177444
0.0183884
0.0193185
0.0205392
0.0194203
0.0184712
0.0175993
0.0169536
0.0166287
0.0166605
0.0170325
0.0178095
0.0188762
0.0201801
0.0190202
0.0178683
0.0169356
0.0163298
0.016048
0.0160932
0.0165168
0.0173387
0.0184331
0.0196802
0.0186199
0.0174774
0.0166269
0.0160514
0.0157835
0.0158154
0.0162047
0.0169649
0.0180194
0.0191871
0.0184524
0.0173673
0.0165681
0.0159972
0.015724
0.0157343
0.0160882
0.0167742
0.0177469
0.0188834
0.0185559
0.0176034
0.0168581
0.0162636
0.0159475
0.0159035
0.0161643
0.0167446
0.0176679
0.0187932
0.0190177
0.0181739
0.017432
0.0168163
0.0164642
0.0163857
0.0165694
0.0170101
0.0178219
0.0189329
0.0196993
0.018882
0.0181524
0.0175673
0.0172345
0.0171537
0.0173144
0.0176512
0.0182531
0.0192633
0.020504
0.0196808
0.0189891
0.0184658
0.0182013
0.0181564
0.018362
0.0187022
0.0191197
0.0199041
0.0214063
0.0205959
0.0199438
0.0195003
0.0193039
0.0193131
0.0196032
0.0200456
0.0205139
0.0210884
0.0208245
0.0198316
0.0189815
0.0183739
0.0181139
0.0182105
0.0186816
0.0194633
0.0204272
0.0215836
0.0200395
0.0190196
0.0181047
0.0175324
0.0173232
0.0174455
0.0179723
0.0187896
0.0197695
0.0209195
0.0195304
0.0183664
0.017471
0.0169489
0.0167641
0.016885
0.0174102
0.0182219
0.0191931
0.0203197
0.0191284
0.018019
0.017194
0.0166792
0.016485
0.0165618
0.017014
0.0177537
0.0186948
0.0197692
0.0190039
0.0179387
0.0171515
0.0166205
0.0164045
0.0164477
0.0168466
0.0175216
0.0184263
0.019491
0.0192094
0.0182365
0.0175022
0.0168748
0.0165678
0.0165393
0.0168667
0.0174981
0.0183852
0.0194473
0.0197614
0.0188947
0.0181615
0.0174415
0.017024
0.016943
0.0172054
0.017771
0.0186051
0.0196653
0.0205422
0.0197279
0.0189516
0.0181948
0.0177419
0.0176394
0.0178849
0.0183962
0.0191103
0.020085
0.0214963
0.0206358
0.0198076
0.019078
0.0186857
0.0186044
0.0188853
0.0194026
0.02002
0.0208143
0.0225507
0.0216116
0.0207711
0.020115
0.0197947
0.0197452
0.0200773
0.0206624
0.0213154
0.0219426
0.0148408
0.0145087
0.01422
0.0140272
0.0139316
0.0138979
0.0139539
0.0142106
0.0146435
0.0151914
0.0144982
0.0140957
0.0137841
0.0136299
0.0135764
0.0135553
0.0136215
0.0138729
0.0142731
0.0147985
0.0142818
0.0138414
0.0135578
0.0134122
0.0133485
0.0133377
0.0134208
0.0136422
0.0139912
0.0144358
0.014145
0.0137064
0.0134464
0.0133102
0.0132473
0.0132374
0.0133101
0.0134774
0.0137433
0.0140748
0.0141145
0.013666
0.0134192
0.0132855
0.0132225
0.0132083
0.0132559
0.0133716
0.0135881
0.0138974
0.0142228
0.0137616
0.0135266
0.0133452
0.0132474
0.013225
0.0132509
0.0133547
0.0135691
0.0138816
0.0145135
0.0140521
0.0138128
0.013533
0.0133394
0.0132971
0.0133228
0.0134337
0.0136593
0.0140027
0.0150025
0.0144969
0.0142432
0.0138401
0.0135204
0.0134314
0.0134646
0.0135937
0.0138381
0.0142338
0.0156103
0.0150867
0.0147247
0.0142167
0.0138157
0.0136846
0.0137111
0.0138649
0.0141298
0.0145255
0.0162864
0.0157821
0.015195
0.0146278
0.0142156
0.0140666
0.0140878
0.0142823
0.0145783
0.014862
0.0105743
0.0105323
0.0105108
0.0104681
0.0103102
0.010176
0.0101422
0.0102165
0.0103414
0.0105002
0.0104765
0.010345
0.0102436
0.0102128
0.0101033
0.00997969
0.0099774
0.0100584
0.010191
0.0103801
0.0104351
0.0102218
0.0100799
0.00998773
0.00988554
0.00984238
0.00986514
0.00995391
0.0100824
0.010234
0.0103639
0.0101114
0.00996238
0.0098535
0.00978051
0.00976236
0.00978902
0.00986547
0.00997358
0.010076
0.0103281
0.0100626
0.00991842
0.00982163
0.00976876
0.0097516
0.00975835
0.00980607
0.0098958
0.00999625
0.0103319
0.0100583
0.00992258
0.00983428
0.00979092
0.0097727
0.00977036
0.00980718
0.00989589
0.00999662
0.0104142
0.0101466
0.0100279
0.00991383
0.00985804
0.00984685
0.00985009
0.0098836
0.00996497
0.0100669
0.010603
0.0103343
0.0102361
0.010075
0.00995759
0.00993115
0.0099442
0.00996896
0.0100313
0.0101504
0.0108844
0.0106262
0.0104963
0.0102887
0.01011
0.0100348
0.0100347
0.0100526
0.0101106
0.010239
0.0111952
0.0109761
0.0106723
0.0104507
0.0102698
0.0101622
0.0101595
0.0102047
0.0102649
0.0103454
0.00855209
0.00854542
0.00856997
0.00856597
0.00838386
0.00830484
0.0083034
0.00832552
0.00834967
0.00841089
0.00853371
0.00847854
0.00844913
0.0084499
0.0082671
0.0081874
0.00818654
0.00821196
0.00825967
0.00835888
0.00856495
0.00846295
0.00838402
0.00829443
0.00813489
0.00809304
0.00810319
0.00814867
0.00822207
0.00833172
0.0085476
0.00839735
0.00828418
0.00816262
0.00806102
0.00803566
0.00805114
0.00810851
0.00819422
0.00829351
0.00847929
0.00832399
0.00820878
0.00810738
0.00804884
0.00803109
0.00803721
0.00808114
0.00815655
0.00823759
0.00845076
0.00829152
0.00818376
0.00810698
0.00806592
0.00805035
0.00805116
0.00808857
0.00815465
0.00822721
0.0084571
0.00830382
0.00822398
0.00816374
0.0081294
0.00811352
0.00811098
0.00813724
0.00819564
0.00827045
0.00850963
0.00838761
0.00832548
0.00826154
0.00822053
0.00819511
0.0081839
0.00818886
0.00822802
0.00830849
0.00864078
0.00856113
0.0084864
0.0083958
0.00832441
0.00828378
0.00825945
0.00825184
0.00826416
0.00833364
0.00885936
0.00877627
0.00862446
0.00852925
0.00845045
0.00837716
0.00835722
0.00835935
0.00836504
0.00839494
0.00758829
0.00755246
0.0075482
0.00756544
0.00749758
0.00741321
0.0074089
0.00744091
0.00746065
0.00750579
0.00756879
0.00750428
0.00748575
0.00748768
0.00738664
0.00731548
0.0073097
0.0073343
0.0073732
0.00745781
0.00757715
0.00749997
0.00745332
0.0074159
0.0072996
0.00724292
0.00724057
0.00727357
0.00733387
0.00743736
0.00760501
0.00750739
0.00743066
0.00735371
0.00724315
0.00719983
0.00719899
0.00723341
0.00730274
0.00740566
0.00763331
0.0075056
0.00740597
0.0073077
0.00722357
0.00719535
0.0071939
0.00722078
0.007281
0.00737246
0.00761787
0.00747896
0.00736949
0.00728499
0.00722776
0.00720528
0.00720302
0.00723
0.00728514
0.00736845
0.00756692
0.00744853
0.00736541
0.00730157
0.00726032
0.00724134
0.00723623
0.00725433
0.00730247
0.00738074
0.00757224
0.0074895
0.00742607
0.00738175
0.00734777
0.00730917
0.00729044
0.00729246
0.00733278
0.00741502
0.00767876
0.00760917
0.00753667
0.00748479
0.00744715
0.00739329
0.00735988
0.00735493
0.00737739
0.00744436
0.00786142
0.00776925
0.00768049
0.00761392
0.007566
0.00749818
0.00745636
0.00745273
0.00746364
0.00749512
0.00708394
0.00704074
0.00700265
0.00697945
0.00694449
0.00690448
0.0069074
0.00694335
0.006976
0.00702211
0.00705878
0.00699645
0.0069563
0.0069372
0.00689355
0.00685138
0.00684755
0.00687034
0.00690849
0.00697402
0.00705668
0.00698327
0.00693326
0.00690677
0.00685312
0.0068112
0.00680511
0.00682386
0.00686466
0.00693393
0.00706053
0.00698406
0.00692808
0.00688737
0.00682628
0.00678883
0.00678157
0.00679496
0.00683124
0.00688782
0.00707322
0.00699357
0.00693425
0.00687868
0.00681854
0.00679026
0.00678316
0.00679185
0.00682213
0.00686999
0.00710993
0.00701973
0.00694279
0.00687632
0.00682399
0.00680006
0.00679257
0.00680091
0.00682895
0.00687279
0.00711281
0.00702061
0.00694522
0.00688509
0.00684459
0.00682398
0.00681499
0.00681723
0.00684163
0.00688678
0.00711076
0.00703438
0.00697173
0.0069303
0.00690384
0.00687511
0.00685158
0.00684778
0.00687158
0.00692351
0.00718143
0.00710958
0.0070539
0.00701486
0.00698128
0.00693683
0.00689991
0.00689422
0.00691495
0.00696206
0.0072993
0.00722277
0.007161
0.0071051
0.00706609
0.00701628
0.00696115
0.00695692
0.00698053
0.00701229
0.00684274
0.00680537
0.00676875
0.00673706
0.00671208
0.00669536
0.00669961
0.00672102
0.00674904
0.00678404
0.00682999
0.00678457
0.0067466
0.00671564
0.00668877
0.00666835
0.00666632
0.00668004
0.00670601
0.00674611
0.00682829
0.00677825
0.00673458
0.00670016
0.00666933
0.00664638
0.00664139
0.00665142
0.00667489
0.00671251
0.00683195
0.00677915
0.00673083
0.00669225
0.00665745
0.00663472
0.00662788
0.00663361
0.00665361
0.00668369
0.0068424
0.00678524
0.00673495
0.00669368
0.00665786
0.00663685
0.00662944
0.00663184
0.00664791
0.00667222
0.00687101
0.00680688
0.00675007
0.00670154
0.00666621
0.00664711
0.00663899
0.00663985
0.00665354
0.0066763
0.00688796
0.00682341
0.0067637
0.00671714
0.00668704
0.00667033
0.00665859
0.0066563
0.00666832
0.00669242
0.00690045
0.00684224
0.00678868
0.00675035
0.00673004
0.00670941
0.006689
0.00668304
0.00669298
0.0067181
0.00696558
0.00690066
0.00684884
0.00681291
0.00678558
0.00675725
0.00672648
0.00671675
0.00672466
0.00674889
0.00701298
0.00696075
0.00691397
0.00687262
0.00683815
0.00680721
0.00676777
0.00675531
0.00676493
0.00678496
0.00683071
0.00679373
0.0067636
0.00673427
0.00670679
0.0066905
0.00669546
0.00671385
0.00673634
0.00676705
0.00682364
0.00677833
0.00674295
0.00671207
0.00668341
0.00666427
0.00666327
0.00667466
0.00669652
0.00673364
0.00682602
0.00677721
0.00673373
0.00669642
0.00666447
0.00664365
0.00663933
0.00664804
0.00666971
0.00670627
0.00683471
0.00678086
0.00672949
0.00668561
0.00665204
0.00663172
0.00662557
0.00663154
0.00665053
0.0066804
0.00684835
0.00678592
0.0067294
0.00668431
0.0066512
0.0066314
0.0066242
0.00662733
0.00664253
0.00666659
0.00686488
0.00679938
0.00673664
0.00669168
0.0066606
0.0066422
0.00663419
0.00663559
0.00664934
0.00667188
0.00687817
0.00681396
0.00676401
0.00671164
0.00668375
0.00666513
0.00665488
0.00665429
0.0066669
0.00669034
0.00690486
0.00684179
0.00679298
0.00675215
0.00672689
0.00670192
0.00668552
0.0066816
0.00669022
0.00671343
0.00695379
0.00689196
0.00684503
0.00680452
0.00677407
0.00675004
0.00672334
0.00671542
0.00671985
0.00673919
0.00699252
0.00694273
0.00689065
0.00685161
0.00681632
0.00679007
0.006762
0.0067546
0.00675959
0.00677332
0.00212221
0.00168697
0.00169861
0.00165379
0.00124382
0.00124401
0.00165433
0.00169919
0.00168763
0.00212278
0.00168725
0.00124767
0.00110935
0.00105508
0.000985508
0.000985509
0.00105519
0.00110964
0.00124778
0.00168728
0.0016991
0.00110942
0.000970917
0.000932175
0.000915454
0.000915578
0.000932181
0.000970525
0.00110914
0.00169909
0.0016542
0.00105513
0.000932167
0.000899994
0.000888783
0.000888332
0.000899538
0.000931699
0.00105476
0.00165425
0.0012439
0.000985481
0.000915562
0.000888372
0.000877582
0.00087753
0.00088822
0.000914965
0.000985074
0.00124366
0.00124409
0.000985272
0.000914988
0.000888212
0.000877524
0.000877527
0.000888219
0.000914965
0.000985045
0.00124335
0.00165415
0.00105471
0.000931698
0.000899453
0.000888219
0.000888199
0.000899416
0.000931431
0.00105402
0.00165131
0.00169907
0.00110907
0.000970474
0.000931671
0.000914925
0.000914562
0.000931118
0.000968255
0.00110699
0.00169673
0.00168736
0.00124745
0.00110904
0.00105421
0.000984483
0.000982853
0.00105249
0.00110713
0.00124543
0.00168496
0.00212264
0.00168664
0.00169827
0.00165151
0.00124099
0.0012416
0.00165181
0.00169668
0.00168494
0.00212007
0.00109486
0.00096607
0.000951146
0.000936049
0.000860564
0.000860598
0.000936156
0.000951253
0.000966206
0.00109502
0.000966112
0.00085882
0.000821891
0.000805877
0.000791565
0.000791564
0.000805905
0.00082197
0.000858831
0.000966102
0.000951229
0.000821901
0.00078507
0.000770746
0.000764423
0.000764465
0.000770748
0.000784942
0.000821813
0.000951217
0.000936121
0.000805885
0.000770744
0.00075665
0.000750767
0.000750609
0.000756497
0.000770594
0.000805771
0.000936116
0.000860576
0.000791557
0.000764461
0.000750621
0.000744583
0.000744569
0.000750581
0.000764266
0.000791435
0.000860504
0.000860637
0.000791481
0.000764265
0.000750577
0.000744569
0.000744572
0.000750584
0.000764271
0.000791435
0.000860477
0.00093609
0.000805759
0.000770595
0.000756477
0.000750585
0.000750585
0.000756477
0.000770565
0.000805695
0.000936209
0.000951221
0.000821803
0.000784939
0.0007706
0.000764269
0.000764215
0.000770522
0.000784875
0.000821797
0.000951327
0.000966139
0.000858768
0.00082181
0.000805716
0.000791361
0.000791364
0.000805758
0.00082181
0.000858774
0.000966231
0.00109496
0.000966078
0.000951164
0.000936205
0.000860459
0.000860506
0.000936232
0.000951323
0.000966231
0.00109511
0.000727592
0.000694347
0.000685941
0.000680072
0.000667982
0.000667988
0.000680091
0.000685961
0.000694377
0.000727631
0.000694353
0.000667647
0.000656343
0.000650583
0.000647058
0.000647059
0.00065059
0.00065636
0.000667651
0.00069443
0.000685954
0.000656345
0.000644519
0.000638497
0.000635743
0.000635752
0.000638497
0.000644542
0.000656383
0.000686023
0.000680083
0.000650584
0.000638497
0.00063207
0.000629145
0.00062915
0.00063208
0.000638514
0.000650618
0.000680149
0.000667984
0.000647058
0.000635751
0.000629151
0.000626095
0.000626094
0.000629149
0.000635757
0.000647089
0.000668038
0.000667995
0.000647085
0.000635753
0.000629147
0.000626095
0.000626097
0.000629152
0.000635762
0.000647094
0.000668055
0.000680142
0.000650614
0.000638514
0.000632081
0.000629152
0.000629157
0.00063209
0.000638548
0.000650687
0.000680708
0.000686023
0.000656388
0.000644548
0.000638524
0.000635767
0.0006358
0.000638577
0.000645134
0.000656932
0.000686512
0.000694441
0.000667717
0.000656398
0.000650667
0.000647141
0.000647662
0.000651191
0.000656909
0.000668232
0.000694933
0.000727697
0.00069448
0.000686067
0.000680678
0.000668618
0.000668548
0.000680635
0.000686513
0.000694933
0.000728179
0.000562068
0.000553952
0.000550854
0.000548867
0.000546826
0.000546827
0.000548871
0.000550858
0.000553959
0.000562075
0.000553953
0.000546759
0.000542932
0.000540715
0.000539575
0.000539576
0.000540717
0.000542934
0.000546761
0.000554038
0.000550856
0.000542933
0.000538621
0.000536067
0.000534856
0.000534857
0.000536066
0.000538679
0.000542997
0.000550935
0.00054887
0.000540716
0.000536067
0.000533244
0.000531902
0.00053195
0.000533295
0.000536122
0.000540779
0.000548945
0.000546828
0.000539577
0.000534857
0.000531949
0.000530537
0.000530537
0.000531952
0.00053491
0.000539638
0.0005469
0.000546827
0.000539631
0.000534909
0.000531952
0.000530538
0.000530539
0.000531953
0.000534912
0.000539639
0.000546906
0.000548945
0.000540778
0.000536123
0.000533298
0.000531953
0.000531955
0.0005333
0.000536135
0.000540804
0.000549238
0.000550935
0.000543001
0.000538682
0.000536126
0.000534914
0.000534925
0.000536145
0.000538964
0.000543274
0.000551206
0.000554041
0.000546839
0.000543005
0.000540796
0.000539656
0.000539916
0.000541058
0.000543266
0.000547106
0.000554314
0.000562161
0.000554057
0.000550952
0.000549225
0.000547189
0.000547166
0.000549213
0.000551206
0.000554314
0.000562434
0.000467131
0.000465054
0.00046398
0.000463295
0.000462847
0.000462848
0.000463296
0.000463981
0.000465055
0.000467132
0.000465054
0.000462855
0.000461457
0.000460584
0.000460149
0.000460149
0.000460584
0.000461457
0.000462856
0.000465108
0.000463981
0.000461458
0.000459798
0.000458739