/*--------------------------------*- C++ -*----------------------------------*\
  =========                 |
  \\      /  F ield         | OpenFOAM: The Open Source CFD Toolbox
   \\    /   O peration     | Website:  https://openfoam.org
    \\  /    A nd           | Version:  9
     \\/     M anipulation  |
\*---------------------------------------------------------------------------*/
FoamFile
{
    format      ascii;
    class       volScalarField;
    location    "1";
    object      f13.gas;
}
// * * * * * * * * * * * * * * * * * * * * * * * * * * * * * * * * * * * * * //

dimensions      [0 0 0 0 0 0 0];

internalField   nonuniform List<scalar> 
137980
(
0.020454
0.0223319
0.0209451
0.0202593
0.0199227
0.019969
0.0201561
0.0207358
0.0212697
0.0218412
0.0223722
0.0226147
0.0218713
0.020384
0.019967
0.0198296
0.0200421
0.0206146
0.0214534
0.0223789
0.0210099
0.0208772
0.0206787
0.0205075
0.0204054
0.0206492
0.0205508
0.0206993
0.0211873
0.0214579
0.0200487
0.0189575
0.0192199
0.0197372
0.0199857
0.0207409
0.0205187
0.0198897
0.0190794
0.0188513
0.0183765
0.0179671
0.018463
0.0188734
0.0193226
0.0201691
0.0203366
0.0198024
0.0184292
0.0180238
0.017805
0.0179588
0.0182487
0.0183537
0.0191129
0.0197229
0.0198999
0.0194432
0.0181045
0.018698
0.0180462
0.0185768
0.0188258
0.0188305
0.0189519
0.0193231
0.0199392
0.0194825
0.0186329
0.0201846
0.019296
0.0197413
0.0193629
0.0187825
0.0180686
0.0185302
0.0203358
0.0202698
0.0192982
0.0205559
0.0193964
0.0198271
0.019127
0.0178777
0.017078
0.0174968
0.0182819
0.0207894
0.0205541
0.0200312
0.0198724
0.0201371
0.0188446
0.0177443
0.0168725
0.0171984
0.0175108
0.0187386
0.0201151
0.0200402
0.0149382
0.0159444
0.0159508
0.015802
0.0158368
0.015877
0.0159662
0.0163089
0.0163478
0.0157395
0.016293
0.0162147
0.0163747
0.016393
0.0163985
0.016712
0.0171924
0.0173978
0.0171856
0.0165137
0.0161147
0.0161532
0.0165109
0.0165973
0.016579
0.016958
0.0174148
0.0175845
0.0175016
0.0172628
0.015689
0.0159572
0.0162237
0.0163807
0.0163825
0.0168325
0.0170821
0.0171595
0.0170634
0.0166869
0.0153364
0.0156414
0.0160754
0.0161606
0.0161645
0.0164604
0.0165588
0.0165609
0.0164508
0.0162265
0.0151829
0.0156414
0.0160311
0.0160751
0.0161032
0.016126
0.0161607
0.0161644
0.0160829
0.0160593
0.0155211
0.0161899
0.0162571
0.0160256
0.016014
0.0160032
0.0159664
0.0158976
0.0157974
0.0159698
0.016241
0.0163559
0.0160389
0.015889
0.0159369
0.0159182
0.0160233
0.0160109
0.0158103
0.015807
0.0160859
0.0161522
0.0158334
0.0156681
0.0156597
0.0158585
0.015678
0.0159462
0.0159645
0.0158909
0.0153766
0.0152723
0.0151929
0.0152523
0.0153866
0.0156873
0.0155726
0.0158804
0.0158006
0.0157507
0.0138555
0.0136636
0.0137334
0.01372
0.0136711
0.0136271
0.0136246
0.0136592
0.0136588
0.0137602
0.0137176
0.0138842
0.013877
0.0138481
0.0137722
0.0137199
0.0137132
0.0137317
0.0136669
0.0137069
0.0140007
0.0139938
0.0139172
0.0138602
0.0137797
0.0137336
0.0136957
0.0136266
0.0136167
0.0138065
0.01406
0.0140262
0.0139086
0.0138159
0.0136932
0.0136288
0.0135362
0.0135191
0.0136226
0.0138444
0.0140791
0.0139228
0.0137655
0.0136961
0.0136699
0.0135986
0.0135204
0.0135094
0.0135888
0.0138616
0.0137932
0.0137865
0.0138296
0.0138244
0.0137324
0.0136179
0.0135645
0.0135869
0.0136935
0.0137195
0.0138311
0.0139278
0.013975
0.0138665
0.0137275
0.0136723
0.0137146
0.0138533
0.013895
0.0138526
0.0140144
0.01413
0.0139475
0.0137612
0.0136918
0.01373
0.0139497
0.0140018
0.0139572
0.013931
0.0140749
0.0139599
0.0136806
0.0137149
0.0137091
0.0139346
0.0140572
0.0140348
0.0138402
0.0138393
0.0136712
0.0135361
0.0136495
0.0136706
0.0137495
0.0140417
0.0140723
0.0139383
0.013569
0.0136218
0.013289
0.0134156
0.0136273
0.0137215
0.0137425
0.0136551
0.0134052
0.0134215
0.0134155
0.0133246
0.0132886
0.0133663
0.0135255
0.013543
0.0134404
0.013359
0.0134009
0.0134828
0.0134621
0.0134077
0.0132671
0.0132611
0.0132956
0.0132816
0.0134359
0.0135758
0.0135792
0.0135427
0.0134743
0.0134217
0.0132734
0.0132541
0.0132942
0.0135679
0.0136833
0.0136719
0.0136154
0.0135271
0.0134395
0.0134246
0.0134464
0.0134856
0.013639
0.0137836
0.0137609
0.0136983
0.0135647
0.0134397
0.0133834
0.0133803
0.0137248
0.0137733
0.0139082
0.013867
0.0137776
0.0136197
0.0134533
0.0133966
0.0133688
0.0133619
0.0140517
0.0140962
0.0140375
0.0138592
0.0136396
0.0134949
0.0134112
0.0133904
0.0133682
0.0133342
0.0142828
0.0142045
0.0139092
0.0136147
0.0135555
0.0134634
0.0134235
0.0134133
0.0133672
0.0133041
0.0143102
0.0139422
0.0135554
0.0135745
0.0135607
0.0134957
0.0134937
0.0134653
0.0133614
0.0133113
0.0138586
0.0132603
0.013551
0.0136644
0.0136583
0.0136054
0.0136404
0.0134627
0.013514
0.0134818
0.0130853
0.0129379
0.0128214
0.0128278
0.0128593
0.0129297
0.0130674
0.0131046
0.0131071
0.0131019
0.013252
0.0130812
0.0129714
0.0129799
0.0130264
0.0131206
0.0131314
0.0131046
0.013048
0.0130486
0.0133232
0.0130176
0.0129908
0.0130151
0.0131599
0.0131566
0.013128
0.0130099
0.0129344
0.0129394
0.013439
0.013021
0.0130332
0.0131548
0.0131774
0.0131467
0.013057
0.0129188
0.0128941
0.0129134
0.013627
0.0131659
0.0131322
0.0131717
0.013181
0.0131404
0.0130101
0.0129064
0.0129064
0.0129779
0.0137237
0.0133868
0.0133593
0.0133386
0.013259
0.0131525
0.0129789
0.0129233
0.0129894
0.0130816
0.0138898
0.0137082
0.0136119
0.0134115
0.0132472
0.0130618
0.012951
0.0129986
0.0131525
0.0131129
0.0139282
0.0138285
0.0135225
0.0131652
0.0131139
0.0129953
0.0129709
0.0132108
0.0132242
0.0131143
0.0138891
0.0134498
0.0129303
0.0130489
0.0131144
0.0130155
0.0132692
0.0133124
0.0132836
0.0130958
0.0137326
0.0124961
0.0127873
0.0132244
0.0133555
0.0133064
0.0134024
0.0133892
0.0133068
0.013103
0.0113863
0.0114304
0.0115193
0.0117889
0.0122613
0.0126246
0.0128037
0.0128652
0.0128476
0.0128671
0.0114544
0.0115677
0.0119148
0.0123523
0.0126217
0.0127724
0.0128346
0.0128249
0.0127508
0.0126992
0.0116111
0.0117576
0.0121732
0.012512
0.0127051
0.0127884
0.0127833
0.012735
0.0126255
0.0125347
0.0117569
0.0119833
0.0123271
0.0125897
0.0127239
0.0127387
0.0127142
0.0126742
0.0125881
0.0125086
0.0122578
0.0124942
0.0126596
0.012748
0.0127671
0.0127502
0.0127037
0.0126728
0.0125863
0.01251
0.013191
0.0131369
0.0130736
0.0130148
0.0129625
0.0128602
0.0127875
0.0127114
0.012569
0.012499
0.0134097
0.013323
0.0132223
0.0131286
0.0130348
0.0129075
0.0128208
0.0126633
0.0125041
0.0124199
0.0133582
0.0132991
0.0131917
0.0131018
0.0129403
0.0128333
0.0126553
0.0124408
0.0123583
0.0122888
0.0130637
0.0130037
0.0128577
0.012646
0.0125298
0.0123678
0.0122714
0.0122773
0.0122632
0.0122443
0.0122294
0.0118555
0.0117782
0.0118973
0.0121022
0.0121049
0.0121242
0.0121934
0.0122148
0.0122323
0.010956
0.0109571
0.0109114
0.0107258
0.0107357
0.0110204
0.0118612
0.0123622
0.0124313
0.0124948
0.0106792
0.0108081
0.0107843
0.0106833
0.010727
0.0110725
0.0118077
0.0121977
0.012243
0.0123203
0.010241
0.0104357
0.0104876
0.0105411
0.0107205
0.0112312
0.0117827
0.0120352
0.0120377
0.0120061
0.0102602
0.0102898
0.0103493
0.0104706
0.0107778
0.0112133
0.011535
0.0116964
0.011717
0.0117116
0.010324
0.0102877
0.0103252
0.0104265
0.0106569
0.0109847
0.0112827
0.0114631
0.0115375
0.0115827
0.0109138
0.0107379
0.0107518
0.0108309
0.0110271
0.0112652
0.0114084
0.0114851
0.0115345
0.0115877
0.0118457
0.0116498
0.0115375
0.011558
0.0116231
0.011663
0.0116627
0.0116594
0.0116375
0.0116394
0.0122128
0.0120755
0.011988
0.0119614
0.0118985
0.0118442
0.011762
0.0117238
0.0116594
0.0116503
0.0122608
0.0121727
0.012111
0.0120172
0.0118955
0.0117929
0.011669
0.0116154
0.0115083
0.0114886
0.0121876
0.012093
0.0117826
0.0114271
0.0112155
0.0111713
0.0112058
0.0111607
0.0110721
0.0110226
0.0097938
0.00939084
0.0090737
0.0090938
0.00931238
0.0100739
0.0109159
0.0110929
0.0111665
0.0114342
0.00969262
0.00953053
0.00921706
0.00915011
0.00923502
0.00973516
0.0106661
0.0109508
0.0108487
0.0110853
0.00944022
0.00948358
0.00937289
0.00918106
0.00921907
0.00962172
0.0104612
0.0106939
0.0106741
0.0105408
0.00927588
0.00934491
0.00927978
0.00912562
0.00917352
0.00958609
0.01021
0.0103183
0.0102491
0.010122
0.00894062
0.00896145
0.00894937
0.00895085
0.00908023
0.00957424
0.00990486
0.00990437
0.00988295
0.0100021
0.00919269
0.00889715
0.00886557
0.00890481
0.00904552
0.00937337
0.00952088
0.00959525
0.00976382
0.0101477
0.00995234
0.00925023
0.009009
0.00899855
0.00905713
0.00915704
0.00934273
0.00951024
0.00987997
0.0102496
0.0107448
0.0102011
0.00969247
0.00938
0.00929556
0.00931706
0.00939724
0.00957415
0.0100101
0.0102935
0.0110707
0.010788
0.0104828
0.0102206
0.0100134
0.00985827
0.00986573
0.00994121
0.0101754
0.0103176
0.0112148
0.0110611
0.0109022
0.0107159
0.0105665
0.0104073
0.0102738
0.010275
0.0103239
0.0103383
0.00875613
0.00851032
0.00822465
0.00811289
0.00826048
0.00847423
0.00864811
0.00886068
0.00929479
0.00965484
0.00888733
0.00865213
0.00821668
0.00804973
0.00816242
0.00834004
0.00843701
0.00846998
0.00863702
0.00898203
0.00882929
0.00864354
0.00821725
0.0080094
0.00811276
0.00824785
0.00830108
0.00829645
0.00842572
0.00867567
0.00869094
0.00846804
0.00807596
0.00799165
0.00804512
0.00809397
0.00810753
0.0081462
0.00833977
0.00856317
0.00841465
0.00818076
0.0080377
0.0079972
0.00800311
0.00800436
0.00801495
0.00810937
0.00836279
0.00861266
0.00848781
0.00826845
0.00814516
0.00806042
0.00801977
0.00800087
0.00802521
0.00821112
0.00856321
0.00888515
0.00897534
0.00863591
0.00845347
0.00832502
0.00822871
0.00816684
0.00818389
0.00842
0.00878915
0.00914167
0.00978788
0.00932736
0.00891244
0.00865121
0.00851399
0.00839694
0.00837861
0.00865783
0.009022
0.00928301
0.0101901
0.00985167
0.00950134
0.00913507
0.0088605
0.00864264
0.00854177
0.00891506
0.00921932
0.00941127
0.0104814
0.0102222
0.00994776
0.00962236
0.00924278
0.00888647
0.00872952
0.00909753
0.00928665
0.00936647
0.00904372
0.00845712
0.00816871
0.00780219
0.00766765
0.00766248
0.00763897
0.00768314
0.00781469
0.00810508
0.00893304
0.00844762
0.007995
0.00768103
0.0075789
0.00756893
0.00753238
0.00756114
0.00769262
0.00795636
0.00869346
0.00841021
0.00796217
0.00768491
0.00754874
0.00749867
0.00743615
0.00746649
0.00760345
0.00786834
0.00835927
0.0082084
0.00789353
0.0076755
0.00753494
0.00745044
0.00738917
0.00742472
0.00757122
0.00783649
0.0083564
0.00810893
0.00788122
0.0076933
0.00754817
0.00744679
0.00739573
0.00744051
0.00759196
0.0078719
0.00898637
0.00844757
0.00809254
0.00785898
0.00769643
0.00757214
0.00749739
0.00752952
0.00765996
0.00797814
0.00966606
0.00925652
0.00881613
0.00842017
0.00811292
0.00789031
0.00769817
0.00768682
0.00778136
0.00814287
0.0100066
0.00971034
0.00939147
0.00901925
0.00864585
0.00833278
0.00801462
0.00788808
0.00795223
0.00833767
0.0103101
0.010034
0.0097751
0.00950715
0.00915028
0.00884242
0.00846422
0.008146
0.00814185
0.00847091
0.0103644
0.0100827
0.00980548
0.00959584
0.00931139
0.00908133
0.00880773
0.00845161
0.00835207
0.00853241
0.00912018
0.00881192
0.00833757
0.00784121
0.00751708
0.00738097
0.00738395
0.00744081
0.00759671
0.00782453
0.00874644
0.00829785
0.00778682
0.00742598
0.0072352
0.00717091
0.00719155
0.00726921
0.00743473
0.00773891
0.00825075
0.00784761
0.00749221
0.00725655
0.00712524
0.00708494
0.00711327
0.00720092
0.00736934
0.00768098
0.00811944
0.00774297
0.0074447
0.00725125
0.00713385
0.0070796
0.00710423
0.00719004
0.00735482
0.00766576
0.00851808
0.00805104
0.00772832
0.00751268
0.00735915
0.00724816
0.00724708
0.00729979
0.00743281
0.00770315
0.00910191
0.00859009
0.00819186
0.00789026
0.00767561
0.00751166
0.00743674
0.00746508
0.00756087
0.00776983
0.00963598
0.0091454
0.00868551
0.00831012
0.00801373
0.00781949
0.00767101
0.0076752
0.007742
0.00793758
0.00988804
0.00944486
0.00901834
0.0086417
0.00828882
0.00804431
0.00787394
0.00786326
0.00792785
0.00816629
0.00983122
0.00941681
0.0090249
0.00868655
0.00837026
0.00814167
0.00800018
0.00801504
0.00811579
0.00846246
0.00949636
0.0091779
0.00889711
0.00864597
0.00842708
0.00826433
0.00817352
0.00820472
0.00835502
0.00877407
0.0090889
0.00873005
0.00827194
0.00787018
0.00758801
0.00742516
0.00742227
0.00747804
0.00763163
0.00786047
0.00846761
0.00809713
0.00771205
0.00739914
0.00720048
0.00709623
0.00710913
0.00718215
0.00735281
0.00770103
0.00812478
0.00771384
0.00740005
0.00717672
0.00703164
0.00694797
0.00696275
0.00703809
0.00722615
0.00763588
0.00801632
0.00763424
0.00734448
0.00713892
0.0069992
0.00691028
0.00691791
0.00698831
0.00718298
0.00762976
0.0082054
0.0078028
0.00750249
0.0072774
0.007116
0.00699204
0.00695441
0.00700786
0.00720005
0.00766399
0.00848457
0.00807793
0.00776013
0.00749258
0.00728552
0.00713795
0.00708133
0.00712018
0.00727435
0.00768646
0.00872928
0.00829725
0.00798604
0.00771919
0.00749447
0.00733648
0.00726423
0.007297
0.00741907
0.00777175
0.00883111
0.00842504
0.0081736
0.00793943
0.00772551
0.00757932
0.00750891
0.00754381
0.00765545
0.007966
0.00886087
0.00858448
0.00838427
0.0081731
0.00800369
0.00790196
0.00783734
0.00785946
0.00797588
0.00833428
0.00896406
0.00886071
0.00866001
0.00850617
0.00841385
0.00837598
0.00831894
0.00825726
0.00834092
0.0086095
0.00968236
0.00943621
0.00902754
0.00873748
0.00848897
0.00828142
0.0081288
0.00812096
0.00818808
0.0084133
0.00888393
0.00866296
0.00836244
0.00808592
0.0078221
0.0075923
0.00753265
0.00757825
0.00776799
0.00829271
0.00844235
0.00807977
0.00777566
0.00750032
0.00726535
0.00714152
0.00715433
0.00725575
0.00754339
0.00821517
0.00829672
0.00786803
0.00750757
0.00723387
0.00704349
0.00696101
0.00698575
0.00709968
0.00740666
0.00813899
0.00832395
0.00788757
0.00750954
0.00722576
0.00702944
0.00693149
0.00694881
0.0070477
0.00733304
0.00801747
0.00855241
0.0081322
0.00774008
0.0074315
0.00721205
0.00707019
0.00706375
0.0071227
0.00733133
0.00787522
0.00881845
0.00841039
0.00802384
0.00771873
0.00749203
0.00734144
0.00728404
0.00731563
0.00744529
0.00783193
0.00913038
0.00871759
0.00834913
0.00806888
0.0078614
0.00772828
0.00763641
0.00763814
0.00770002
0.0079316
0.00945593
0.00903003
0.00871061
0.00848387
0.00832643
0.00823321
0.00816661
0.00808876
0.00810353
0.00819818
0.00975712
0.00935802
0.0091227
0.00897059
0.00888337
0.00887327
0.00885269
0.0087497
0.00864835
0.00860805
0.0110858
0.0105621
0.0101279
0.00976949
0.00935595
0.00898434
0.00889676
0.00896212
0.00929524
0.0101216
0.0102694
0.00975232
0.00931812
0.00893308
0.00854445
0.00832639
0.00833991
0.00850225
0.00906976
0.0101488
0.00987733
0.00932293
0.00881721
0.00836841
0.00802874
0.00789803
0.00794524
0.00817087
0.00879605
0.00981553
0.00949392
0.0088923
0.00839326
0.00801927
0.00776958
0.00768774
0.00774527
0.00795964
0.00851685
0.00944224
0.0093263
0.00873077
0.00827753
0.0079445
0.00772041
0.00763734
0.00768472
0.00786862
0.008309
0.00912764
0.00941661
0.00886075
0.00843253
0.00811218
0.00789835
0.00778301
0.00780344
0.00792014
0.00823528
0.00893012
0.00970713
0.00917107
0.0087625
0.00846116
0.00826175
0.00814163
0.00812459
0.0081817
0.0083755
0.00889292
0.0100716
0.00954486
0.00917494
0.00892061
0.00876421
0.0086965
0.00864156
0.00864854
0.00872108
0.00902238
0.0104799
0.00998036
0.00967275
0.0094812
0.00939876
0.00940241
0.00939353
0.00931567
0.00928364
0.00938753
0.010939
0.0104745
0.0102425
0.0101269
0.010142
0.0102528
0.0103113
0.0102458
0.010021
0.00996761
0.0137185
0.0129992
0.0124615
0.0119109
0.0113954
0.0111884
0.0112238
0.0114443
0.0120361
0.0131295
0.012808
0.0121202
0.0115119
0.0109622
0.0105681
0.0104593
0.010557
0.0109299
0.0118221
0.0130831
0.01253
0.0116477
0.0108954
0.0103226
0.00996981
0.00991988
0.0100786
0.0105614
0.0115161
0.0127341
0.0122224
0.0112518
0.0105272
0.0100008
0.00969651
0.0096699
0.00984328
0.0103283
0.0112694
0.0124165
0.0119661
0.0110915
0.0104205
0.00992345
0.00963872
0.00961154
0.00977214
0.0102259
0.0110808
0.0121774
0.0119138
0.0111514
0.0105519
0.0101018
0.00984456
0.00980436
0.00991885
0.0102495
0.0109908
0.0120574
0.0121533
0.011477
0.0109262
0.0105365
0.0103237
0.010284
0.0103572
0.0105586
0.011063
0.0120723
0.0125722
0.0119235
0.0114458
0.0111593
0.0110324
0.0110261
0.0110776
0.0111641
0.0114061
0.0122022
0.0130995
0.0124932
0.0121159
0.0119353
0.0119017
0.0119615
0.0120427
0.0120582
0.0121003
0.0125846
0.0137188
0.0131699
0.0129028
0.0128108
0.0128613
0.0130296
0.0132137
0.0132862
0.0132249
0.0134657
0.0157054
0.0148701
0.0141616
0.0135549
0.0132182
0.0132166
0.013437
0.0139865
0.0148053
0.0159019
0.0149463
0.0141267
0.0133598
0.0127987
0.0125182
0.0125431
0.0128629
0.0135423
0.0144975
0.0156811
0.0146466
0.0136238
0.0128097
0.0122948
0.012059
0.012099
0.0124635
0.0131815
0.014157
0.0152768
0.0143056
0.013294
0.0125649
0.0120822
0.0118622
0.011893
0.0122309
0.0128945
0.0138302
0.0148642
0.0141543
0.0132022
0.0125252
0.0120494
0.0118269
0.01184
0.0121471
0.012748
0.0136098
0.0146156
0.0142215
0.0134073
0.0127939
0.0123015
0.0120434
0.0120079
0.0122262
0.0127239
0.013542
0.014541
0.0146111
0.0139151
0.0133056
0.0127947
0.0125055
0.0124408
0.0125861
0.0129467
0.0136565
0.01465
0.015212
0.0145479
0.0139456
0.0134638
0.0131956
0.0131317
0.0132574
0.0135117
0.0140056
0.0149005
0.0159415
0.0152684
0.0146947
0.0142701
0.0140665
0.0140394
0.0142149
0.014477
0.0147859
0.0154382
0.0167826
0.0160945
0.0155519
0.0152014
0.0150557
0.0150854
0.0153487
0.0157234
0.0160922
0.0165402
0.0161268
0.0152542
0.0144974
0.0139685
0.0137521
0.013838
0.0142426
0.0149196
0.0157651
0.0167888
0.0154552
0.0145605
0.0137548
0.0132707
0.0131003
0.0132114
0.0136682
0.0143782
0.0152388
0.0162596
0.0150522
0.0140103
0.0132368
0.0128043
0.0126571
0.0127635
0.0132212
0.0139286
0.014781
0.015777
0.0147088
0.013725
0.0130224
0.0125986
0.0124441
0.0125164
0.0129134
0.0135616
0.0143875
0.0153292
0.0145991
0.0136607
0.0129974
0.0125604
0.0123879
0.0124322
0.0127854
0.0133806
0.0141768
0.0151124
0.014758
0.0139197
0.0133203
0.0127963
0.0125433
0.012521
0.0128074
0.0133617
0.0141441
0.0150814
0.0152204
0.0144963
0.0139009
0.0132947
0.0129438
0.0128768
0.0131003
0.0135876
0.0143168
0.0152585
0.0158884
0.01523
0.0145927
0.0139535
0.0135784
0.0134972
0.013708
0.0141368
0.0147374
0.0155883
0.0167297
0.0160365
0.0153449
0.0147314
0.0144223
0.0143678
0.0146234
0.0150642
0.0155697
0.0162264
0.0176883
0.0169085
0.0161921
0.015657
0.0154167
0.0153963
0.0157088
0.0162274
0.016785
0.0172838
0.0112878
0.0110149
0.010771
0.0106123
0.0105378
0.0105107
0.0105481
0.0107505
0.0111058
0.0115583
0.0110139
0.0106688
0.0104049
0.0102823
0.0102459
0.0102293
0.0102779
0.0104826
0.0108105
0.0112439
0.0108499
0.0104576
0.010222
0.0101058
0.0100577
0.0100499
0.0101221
0.010309
0.0105975
0.0109613
0.0107357
0.0103481
0.010135
0.0100262
0.00997785
0.00997156
0.010041
0.0101875
0.0104087
0.0106742
0.0107074
0.0103157
0.0101162
0.0100096
0.00996086
0.00995155
0.010002
0.0101051
0.0102853
0.010536
0.0107854
0.0103993
0.0102194
0.0100707
0.00998684
0.00996956
0.00999904
0.0100914
0.0102711
0.0105268
0.0110183
0.0106426
0.0104733
0.0102444
0.0100699
0.010034
0.010058
0.0101546
0.0103423
0.0106282
0.0114235
0.0110074
0.0108432
0.0105096
0.0102257
0.0101493
0.010178
0.0102884
0.010485
0.0108107
0.0119314
0.0115041
0.0112493
0.0108177
0.0104725
0.0103649
0.0103899
0.010519
0.0107257
0.0110443
0.012495
0.0121058
0.0116159
0.0111434
0.0108025
0.0106813
0.0106947
0.0108459
0.0110864
0.0113072
0.00781981
0.00779479
0.00778359
0.00775323
0.00761605
0.00749516
0.00746242
0.00752231
0.00761893
0.0077394
0.00774494
0.00763859
0.0075583
0.00753886
0.00744682
0.00733649
0.0073326
0.00739823
0.00750272
0.0076509
0.00771432
0.00753463
0.00742316
0.00735127
0.00726511
0.0072272
0.00724475
0.00731764
0.00741976
0.00753483
0.00765348
0.00744082
0.00732509
0.00723805
0.00717781
0.00716253
0.00718317
0.00724495
0.00732977
0.0074074
0.00761891
0.00740001
0.00728852
0.00721201
0.00716944
0.00715523
0.00715854
0.0071944
0.00726325
0.00734184
0.00761716
0.00739607
0.00729128
0.00722314
0.00718846
0.00717297
0.0071694
0.00719563
0.00726431
0.00734426
0.00767971
0.00746748
0.00738004
0.00728905
0.00724341
0.00723484
0.00723689
0.00726169
0.00732541
0.00740608
0.00783074
0.0076175
0.00755234
0.00742198
0.00732258
0.00730099
0.00731335
0.00733308
0.00738151
0.00747399
0.00806192
0.00785343
0.00776144
0.00759225
0.00744345
0.00738003
0.00738226
0.00739794
0.00744372
0.00754235
0.00831208
0.00813865
0.00788402
0.0077083
0.00756592
0.00747847
0.00747858
0.00751548
0.00756248
0.00762327
0.0062074
0.00620758
0.00623327
0.00623182
0.00607084
0.00600495
0.00600574
0.00602606
0.0060441
0.00608991
0.00619587
0.00615527
0.00613512
0.00613938
0.00597967
0.00591338
0.00591408
0.00593657
0.00597384
0.00605173
0.00622359
0.00614459
0.00608446
0.00601122
0.00587394
0.00583965
0.00584913
0.0058872
0.00594487
0.00603021
0.00620796
0.0060873
0.0060003
0.0059001
0.00581493
0.00579447
0.00580744
0.00585463
0.00592238
0.00599988
0.00614441
0.00602321
0.00593489
0.00585307
0.005806
0.00579192
0.00579605
0.00583042
0.00588893
0.00595184
0.00611792
0.00599483
0.00591196
0.00585196
0.00581986
0.00580751
0.00580759
0.00583633
0.00588709
0.00594278
0.0061215
0.00600497
0.00594466
0.00589795
0.00587162
0.00585939
0.00585732
0.00587775
0.00592332
0.00598133
0.00616473
0.00607475
0.00602865
0.00597674
0.00594358
0.00592429
0.00591592
0.00592021
0.00595109
0.00601327
0.00627259
0.00621859
0.0061611
0.00608538
0.00602432
0.0059915
0.00597365
0.00596842
0.00597849
0.0060326
0.00645344
0.00639059
0.00626353
0.00618657
0.00612553
0.00606333
0.0060493
0.00605268
0.0060578
0.00607981
0.00544728
0.00542062
0.00541864
0.00543549
0.00537796
0.00530733
0.00530606
0.0053351
0.00535038
0.00538384
0.00543341
0.00538403
0.00537223
0.00537699
0.00529108
0.00523251
0.00522939
0.00525179
0.00528235
0.00534815
0.00543984
0.00538171
0.00534846
0.00532167
0.0052231
0.00517665
0.00517563
0.00520401
0.00525185
0.00533242
0.00546138
0.00538826
0.00533176
0.005272
0.00517886
0.00514318
0.00514265
0.0051706
0.00522543
0.00530545
0.00548509
0.00538727
0.00531186
0.00523329
0.00516337
0.0051405
0.00513909
0.0051596
0.00520589
0.00527595
0.00547089
0.00536419
0.00527909
0.00521174
0.00516605
0.00514819
0.00514621
0.00516692
0.00520899
0.0052723
0.00542576
0.00533689
0.00527289
0.00522314
0.00519091
0.00517642
0.0051725
0.00518647
0.00522352
0.00528327
0.0054308
0.00536999
0.00532138
0.00528684
0.00526048
0.00522958
0.00521495
0.00521667
0.00524907
0.0053133
0.00551819
0.00546923
0.00541129
0.0053685
0.0053379
0.00529363
0.00526824
0.00526537
0.0052845
0.00533663
0.00566932
0.00559543
0.00552337
0.00547038
0.00543164
0.0053743
0.00534242
0.00534148
0.00535174
0.00537493
0.00505591
0.00502326
0.00499307
0.00497531
0.00494697
0.00491438
0.00491801
0.00494874
0.0049743
0.00500889
0.00503701
0.00498872
0.00495724
0.00494337
0.00490799
0.00487383
0.0048716
0.0048915
0.00492187
0.00497282
0.00503494
0.00497771
0.00493928
0.00492038
0.00487692
0.00484288
0.00483849
0.00485445
0.00488715
0.00494143
0.00503709
0.004978
0.00493594
0.00490584
0.00485617
0.0048258
0.00482013
0.00483071
0.00485918
0.00490298
0.00504589
0.00498534
0.00494162
0.00489915
0.00485003
0.00482741
0.00482186
0.00482827
0.00485139
0.00488787
0.00507497
0.00500677
0.0049479
0.00489553
0.00485392
0.00483516
0.00482931
0.00483548
0.00485681
0.00489009
0.00507651
0.00500619
0.00494796
0.00490101
0.0048692
0.00485353
0.00484667
0.00484806
0.00486677
0.00490155
0.00507314
0.00501575
0.0049672
0.00493543
0.00491599
0.00489369
0.00487486
0.00487183
0.00489108
0.0049321
0.00513
0.00507573
0.00503265
0.00500299
0.00497727
0.00494106
0.00491177
0.00490789
0.00492553
0.00496249
0.00522688
0.00516702
0.00511847
0.00507424
0.00504396
0.00500352
0.00495861
0.00495639
0.0049767
0.00500059
0.00486872
0.00483997
0.0048115
0.0047866
0.00476671
0.00475341
0.00475745
0.00477504
0.00479699
0.00482375
0.00485916
0.00482387
0.00479426
0.00477002
0.00474887
0.00473279
0.00473153
0.00474291
0.00476336
0.00479471
0.00485725
0.00481834
0.0047845
0.00475799
0.00473388
0.00471584
0.00471216
0.00472042
0.00473889
0.00476836
0.00485951
0.00481866
0.00478137
0.00475191
0.00472461
0.00470688
0.00470167
0.00470617
0.00472173
0.00474495
0.00486673
0.00482288
0.00478455
0.00475301
0.00472491
0.00470873
0.00470311
0.00470484
0.00471711
0.00473557
0.00488896
0.00483988
0.00479642
0.00475871
0.00473113
0.00471666
0.00471057
0.00471113
0.00472156
0.00473893
0.00490166
0.00485223
0.00480606
0.00477002
0.00474699
0.00473479
0.00472572
0.00472385
0.00473316
0.00475198
0.00490961
0.00486568
0.00482436
0.00479539
0.00478111
0.00476557
0.0047492
0.00474449
0.00475253
0.00477237
0.00496302
0.00491214
0.00487173
0.00484527
0.00482508
0.00480298
0.00477797
0.00477044
0.00477717
0.00479632
0.00500043
0.00495999
0.00492387
0.00489213
0.00486591
0.00484188
0.0048098
0.00480017
0.00480851
0.00482396
0.00485837
0.00483003
0.00480705
0.00478414
0.00476215
0.00474917
0.00475369
0.00476874
0.00478586
0.00480911
0.00485343
0.00481817
0.00479092
0.00476693
0.00474429
0.00472923
0.00472881
0.00473813
0.00475502
0.00478378
0.00485516
0.0048172
0.00478367
0.00475479
0.0047297
0.00471346
0.00471034
0.00471743
0.00473432
0.00476288
0.00486121
0.00481976
0.00478009
0.00474613
0.00471994
0.00470428
0.00469966
0.00470436
0.00471901
0.00474202
0.00487112
0.00482312
0.00477965
0.0047448
0.00471917
0.00470406
0.00469864
0.00470097
0.00471249
0.0047307
0.00488304
0.0048326
0.00478467
0.0047501
0.00472624
0.00471242
0.00470645
0.00470749
0.00471797
0.00473509
0.00489315
0.00484344
0.00480435
0.00476497
0.00474406
0.00473024
0.00472254
0.00472212
0.00473194
0.0047501
0.00491428
0.00486503
0.00482683
0.00479595
0.00477733
0.00475885
0.00474615
0.00474323
0.00475008
0.00476825
0.004954
0.00490633
0.0048694
0.00483815
0.00481491
0.00479612
0.00477514
0.00476924
0.00477285
0.00478775
0.00498258
0.00494453
0.00490553
0.00487554
0.00484822
0.00482723
0.00480476
0.00479951
0.00480364
0.00481386
0.00129566
0.00092903
0.000940359
0.000905242
0.000575533
0.000575666
0.000905662
0.000940816
0.000929511
0.00129604
0.000929237
0.00058215
0.000480372
0.000443674
0.000391803
0.000391812
0.000443747
0.000480526
0.000582278
0.000929459
0.00094073
0.000480422
0.000383206
0.000360531
0.000350883
0.000350929
0.000360538
0.000383067
0.000480363
0.000940937
0.000905552
0.000443711
0.00036053
0.000343403
0.000338195
0.000338025
0.000343232
0.000360358
0.000443611
0.000905821
0.000575584
0.000391795
0.000350923
0.00033804
0.000333267
0.000333248
0.000337984
0.0003507
0.000391656
0.0005756
0.000575696
0.000391721
0.000350707
0.00033798
0.000333246
0.000333247
0.000337984
0.000350701
0.000391649
0.000575497
0.000905733
0.000443589
0.000360358
0.000343201
0.000337984
0.000337978
0.000343191
0.00036028
0.000443379
0.000904764
0.000940898
0.000480338
0.000383053
0.000360352
0.000350689
0.00035058
0.000360184
0.000382363
0.000479672
0.000940079
0.000929517
0.000582175
0.000480329
0.000443435
0.000391474
0.000390962
0.000442887
0.000479713
0.000581502
0.00092863
0.00129619
0.000929245
0.000940614
0.000904809
0.000574702
0.00057491
0.000904919
0.000940044
0.000928617
0.00129518
0.000522274
0.000419683
0.000410274
0.00039982
0.000340943
0.000340967
0.000399898
0.000410354
0.000419773
0.000522371
0.000419712
0.000341224
0.000317284
0.000308053
0.000298403
0.000298404
0.000308069
0.000317321
0.000341241
0.000419738
0.000410334
0.000317291
0.000295129
0.000288048
0.000284979
0.000284995
0.00028805
0.000295076
0.000317261
0.000410366
0.000399872
0.000308059
0.000288047
0.000281526
0.000278962
0.000278897
0.000281463
0.000287986
0.000308017
0.000399911
0.00034095
0.0002984
0.000284994
0.000278902
0.000276312
0.000276306
0.000278886
0.000284914
0.000298351
0.000340935
0.000340981
0.000298368
0.000284913
0.000278884
0.000276306
0.000276307
0.000278888
0.000284916
0.000298352
0.000340927
0.000399894
0.000308012
0.000287986
0.000281455
0.000278888
0.000278888
0.000281456
0.000287976
0.00030799
0.000399936
0.000410365
0.000317256
0.000295076
0.000287988
0.000284916
0.000284895
0.000287959
0.000295028
0.000317236
0.000410398
0.000419762
0.000341216
0.000317259
0.000307997
0.000298323
0.000298301
0.000307991
0.000317242
0.000341203
0.000419787
0.000522372
0.000419735
0.000410344
0.00039993
0.000340899
0.00034092
0.000399944
0.000410395
0.000419787
0.000522439
0.000288815
0.000264112
0.000259064
0.000255451
0.000246465
0.000246469
0.000255463
0.000259077
0.00026413
0.000288836
0.000264117
0.000246758
0.000240513
0.000237667
0.000235694
0.000235694
0.000237671
0.000240521
0.000246761
0.000264144
0.000259073
0.000240514
0.000234558
0.00023189
0.000230687
0.000230691
0.000231891
0.000234561
0.000240524
0.000259098
0.000255458
0.000237668
0.00023189
0.000229132
0.000227903
0.000227898
0.000229129
0.00023189
0.000237675
0.000255483
0.000246466
0.000235693
0.000230691
0.000227899
0.00022662
0.00022662
0.000227897
0.000230686
0.000235699
0.000246483
0.000246472
0.000235698
0.000230684
0.000227896
0.00022662
0.000226621
0.000227899
0.000230688
0.000235701
0.000246488
0.000255479
0.000237673
0.00023189
0.000229129
0.000227898
0.0002279
0.000229132
0.000231901
0.000237694
0.000255641
0.000259098
0.000240525
0.000234563
0.000231894
0.000230689
0.000230698
0.000231908
0.000234733
0.000240682
0.000259236
0.00026415
0.00024678
0.000240528
0.000237688
0.000235713
0.000235864
0.00023784
0.000240675
0.000246928
0.000264288
0.000288859
0.000264159
0.000259108
0.000255631
0.000246649
0.000246628
0.000255619
0.000259236
0.000264288
0.000288994
0.00020387
0.000198463
0.000196806
0.000195748
0.000194399
0.000194399
0.00019575
0.000196808
0.000198466
0.000203874
0.000198464
0.00019448
0.000192663
0.000191684
0.000191155
0.000191155
0.000191685
0.000192664
0.000194481
0.000198491
0.000196807
0.000192663
0.000190756
0.00018969
0.000189189
0.000189189
0.00018969
0.000190773
0.000192683
0.000196833
0.00019575
0.000191685
0.00018969
0.000188527
0.000187978
0.000187992
0.000188542
0.000189706
0.000191704
0.000195774
0.0001944
0.000191155
0.000189189
0.000187992
0.000187415
0.000187415
0.000187992
0.000189204
0.000191173
0.000194422
0.0001944
0.000191172
0.000189204
0.000187992
0.000187415
0.000187415
0.000187993
0.000189205
0.000191174
0.000194424
0.000195773
0.000191704
0.000189706
0.000188543
0.000187993
0.000187993
0.000188544