/*--------------------------------*- C++ -*----------------------------------*\
  =========                 |
  \\      /  F ield         | OpenFOAM: The Open Source CFD Toolbox
   \\    /   O peration     | Website:  https://openfoam.org
    \\  /    A nd           | Version:  9
     \\/     M anipulation  |
\*---------------------------------------------------------------------------*/
FoamFile
{
    format      ascii;
    class       volScalarField;
    location    "1";
    object      f14.gas;
}
// * * * * * * * * * * * * * * * * * * * * * * * * * * * * * * * * * * * * * //

dimensions      [0 0 0 0 0 0 0];

internalField   nonuniform List<scalar> 
137980
(
0.0141944
0.0156044
0.0143847
0.0138852
0.0134454
0.0135836
0.0139901
0.0144634
0.0149393
0.0152223
0.0152045
0.0158229
0.0151795
0.0139597
0.0138168
0.0135891
0.0138174
0.0143723
0.0151275
0.0157085
0.014341
0.0140277
0.0146282
0.0145234
0.0144932
0.0146234
0.0144816
0.0146574
0.0149011
0.0149871
0.0137714
0.013084
0.0133965
0.0138865
0.0140937
0.0148106
0.0145551
0.0139874
0.0131787
0.012986
0.0127198
0.0123947
0.0127849
0.0131428
0.0134948
0.0142387
0.0144441
0.0141024
0.012827
0.0124086
0.0123215
0.0123343
0.0125056
0.012708
0.0132537
0.0137678
0.0141159
0.01392
0.0126234
0.0128307
0.0124196
0.0127288
0.0130588
0.013011
0.0131711
0.013631
0.0142048
0.0138776
0.0128988
0.0138005
0.0130671
0.0136066
0.0133588
0.0129481
0.0127474
0.0131089
0.0147906
0.0146127
0.0132615
0.0139396
0.0131917
0.0135493
0.0131062
0.0123399
0.0119624
0.0122884
0.0127956
0.015091
0.0144615
0.0136439
0.0135374
0.0137507
0.0129752
0.0122776
0.0117961
0.0120898
0.0121375
0.0129912
0.0141598
0.0137373
0.0101938
0.0111216
0.0110734
0.0109069
0.010945
0.0109646
0.0110101
0.0112258
0.0112025
0.0106935
0.0113488
0.011368
0.0114834
0.0114623
0.0113908
0.011564
0.011906
0.0120284
0.0117779
0.0113276
0.0110691
0.0112268
0.0115759
0.0116701
0.0115922
0.0118228
0.0121497
0.0122628
0.0121761
0.0120031
0.01084
0.011032
0.0112776
0.011446
0.0113877
0.0117351
0.011893
0.0119341
0.0118128
0.0114745
0.0105742
0.0107857
0.0111566
0.0112498
0.0111951
0.0114093
0.0114779
0.0114433
0.011281
0.0110474
0.0104134
0.0107332
0.0110744
0.0111752
0.0111796
0.0111361
0.0111542
0.0111484
0.0109976
0.0109184
0.0106099
0.0111215
0.0113092
0.0111637
0.011169
0.011141
0.0110582
0.0109645
0.0108104
0.0108954
0.011221
0.0113284
0.0111786
0.0111028
0.011153
0.0111011
0.011205
0.0111726
0.0109133
0.0108238
0.0111415
0.0111913
0.0109764
0.0108567
0.0109275
0.0110661
0.0108185
0.0110684
0.0110653
0.0109116
0.0106003
0.0104886
0.0103969
0.010477
0.0106537
0.010926
0.0107212
0.0109353
0.0108897
0.0107995
0.00932497
0.00926292
0.00938412
0.00938383
0.0093353
0.00928772
0.00928156
0.00930633
0.00931966
0.00940375
0.00933655
0.00952403
0.00955047
0.00953334
0.00947534
0.00941605
0.00940578
0.00940801
0.00936138
0.00938523
0.00962747
0.0096331
0.0095914
0.00955208
0.00948835
0.00943676
0.00940589
0.00935112
0.00933127
0.00944143
0.00967546
0.00966144
0.00959225
0.00953153
0.0094209
0.00936931
0.00928849
0.00926758
0.00933626
0.00946285
0.0097179
0.00959814
0.00947899
0.00943055
0.00941072
0.00934656
0.00927851
0.00926514
0.00932331
0.0094801
0.0094799
0.00949527
0.00953642
0.00953843
0.00946248
0.00936067
0.00932457
0.00935354
0.00944016
0.00943049
0.00951165
0.00961404
0.00966072
0.00956881
0.0094457
0.00941043
0.00945455
0.00956441
0.00956282
0.00953497
0.00967053
0.00978353
0.00963776
0.00944615
0.00940699
0.00945273
0.0096154
0.00962999
0.00958606
0.00956861
0.00973268
0.00963369
0.00933667
0.00939621
0.00940794
0.00960253
0.00965889
0.00963427
0.00943524
0.00944401
0.00934254
0.00918347
0.00927803
0.00931121
0.00938513
0.00963878
0.00963403
0.00947911
0.00914571
0.00917409
0.00892847
0.00898235
0.00917337
0.00927046
0.00931963
0.00926222
0.0091146
0.00917105
0.00919472
0.00911666
0.00894674
0.00897794
0.00911307
0.00914516
0.00909069
0.00910049
0.00915322
0.00925016
0.00923004
0.00918876
0.00894103
0.0089368
0.00896437
0.0089623
0.00919794
0.00933781
0.00933522
0.00930408
0.00924096
0.00919652
0.00896056
0.00894494
0.00900056
0.00932566
0.00942239
0.00940824
0.00936088
0.00927526
0.00919592
0.00918735
0.00915855
0.00920157
0.00937136
0.00949675
0.00947536
0.00941898
0.0092932
0.00917041
0.00913337
0.00913509
0.00938212
0.00944633
0.00959201
0.00956034
0.00948031
0.00931368
0.00916488
0.00912553
0.00911995
0.00911851
0.00969479
0.00975071
0.00970489
0.00954982
0.00929917
0.00917362
0.00912051
0.00912221
0.00911932
0.00908585
0.00990343
0.00984796
0.00958253
0.00926335
0.00920449
0.00914574
0.00914904
0.00915844
0.00911186
0.00898701
0.00992743
0.00962039
0.0091776
0.00920681
0.00921067
0.00920236
0.00922108
0.00920286
0.00906156
0.00896905
0.00953908
0.00890221
0.0091584
0.00928169
0.0093004
0.00928316
0.00933845
0.00915035
0.00915131
0.00909483
0.00883278
0.00870773
0.00858515
0.00859848
0.00865273
0.00874361
0.00888579
0.00893239
0.00892655
0.00892199
0.00899814
0.00887942
0.00878742
0.00880427
0.00884922
0.00894708
0.00897717
0.0089485
0.00889613
0.00889558
0.00907276
0.00883575
0.00880919
0.00882229
0.00899009
0.00901249
0.00899074
0.00889441
0.00880596
0.00880307
0.00917774
0.00882201
0.00884524
0.00898207
0.00903454
0.00901374
0.00894854
0.00881029
0.00876731
0.00877602
0.00938538
0.00898309
0.00894926
0.00901189
0.00904824
0.00901419
0.00889697
0.0087932
0.00877445
0.00881753
0.00948481
0.00918827
0.00918564
0.00917991
0.00912492
0.00902399
0.00885602
0.00879047
0.00883457
0.00886985
0.0096619
0.00950441
0.00942412
0.009246
0.00907176
0.00889037
0.00880929
0.00883809
0.0089357
0.00888431
0.009702
0.00961508
0.00933535
0.00892186
0.00889276
0.00881768
0.00880621
0.00898787
0.00897974
0.0088299
0.00965491
0.00921659
0.00864906
0.00876807
0.00888305
0.00883258
0.00903444
0.00905612
0.00899933
0.00880036
0.0094997
0.00819233
0.00846408
0.00892531
0.00906997
0.00906687
0.00911919
0.00908849
0.00899796
0.00879524
0.00729286
0.00734344
0.00744245
0.0077308
0.0082285
0.00856529
0.00871888
0.00876362
0.00874713
0.00873718
0.00734692
0.00746479
0.00781488
0.00830229
0.00856915
0.00870895
0.00875843
0.00875232
0.00870542
0.00864318
0.00748355
0.00764312
0.00809853
0.00846678
0.00865589
0.00873769
0.00873867
0.00870659
0.00862912
0.00852759
0.00762533
0.00786973
0.00826159
0.00854131
0.00869005
0.00871814
0.00870889
0.00867999
0.00861112
0.00851254
0.00811902
0.00839877
0.00860731
0.00873117
0.00876993
0.00876426
0.00872927
0.00869703
0.00861573
0.00850945
0.00911754
0.00908753
0.00904311
0.00900067
0.00895628
0.00886892
0.00879366
0.00872633
0.00858008
0.00845998
0.0093271
0.00925552
0.00917181
0.00909363
0.00901196
0.00889618
0.00881458
0.00866342
0.00845487
0.00831401
0.00925922
0.00921059
0.00911139
0.0090219
0.00886915
0.00875466
0.00860456
0.00835784
0.0082333
0.00814324
0.00894459
0.00888552
0.00873129
0.00852034
0.00841739
0.00827271
0.00814589
0.00811883
0.00809421
0.00808547
0.00808306
0.00770653
0.00764701
0.00775916
0.00795143
0.00793709
0.00794281
0.00800056
0.00804161
0.00807085
0.0071092
0.00711206
0.00707258
0.00690798
0.00691591
0.00717843
0.00796867
0.00840747
0.00845006
0.00847584
0.0068661
0.00698394
0.00696443
0.00687054
0.00690847
0.00723094
0.00792826
0.00828676
0.00833506
0.00837082
0.00646454
0.00664216
0.00668217
0.00673156
0.00690146
0.00738927
0.00791346
0.00816464
0.00817434
0.00814563
0.00646762
0.00650097
0.00655669
0.00666807
0.00695656
0.00737916
0.00769682
0.00787491
0.0079103
0.00790636
0.00652111
0.00649482
0.00652889
0.00662046
0.00683492
0.00715909
0.00746549
0.00766003
0.0077391
0.00778057
0.00700413
0.00688734
0.00690889
0.00699468
0.0072029
0.00744943
0.00760556
0.00768895
0.00773449
0.00777509
0.00792691
0.00775503
0.00768104
0.00770722
0.00777954
0.00782385
0.00782446
0.00782178
0.00779762
0.00779367
0.00828167
0.00816667
0.00809571
0.00807548
0.00802565
0.0079827
0.00790508
0.0078702
0.00779436
0.00777499
0.00831271
0.0082449
0.00819347
0.0081117
0.00798976
0.00789008
0.00776372
0.00770524
0.00759015
0.00757009
0.00820475
0.00812505
0.00784278
0.00750389
0.00731045
0.00726839
0.00730002
0.00725524
0.00716339
0.0071206
0.00622975
0.0059068
0.00564541
0.00566468
0.00585121
0.00654608
0.00730358
0.00745117
0.00747073
0.00766854
0.00614087
0.00601313
0.00576136
0.00571461
0.00578312
0.0062342
0.00709479
0.0073562
0.00724893
0.00740749
0.0059177
0.00597111
0.00588585
0.00573714
0.00576785
0.0061323
0.00691952
0.00713936
0.00711762
0.00698659
0.00578203
0.00585335
0.0058079
0.00568801
0.00572615
0.006104
0.00669827
0.00680435
0.0067396
0.00659567
0.005506
0.00553586
0.00553338
0.00553476
0.00564778
0.006105
0.00642359
0.00642045
0.00638352
0.0064796
0.00571751
0.00547948
0.00545764
0.00549055
0.00561488
0.00592018
0.00605481
0.00611274
0.0062666
0.00656326
0.00635381
0.00576965
0.00557168
0.00556536
0.00561201
0.00570231
0.00586312
0.00601713
0.00634748
0.0066331
0.00703562
0.00657505
0.00614063
0.00587872
0.00581185
0.00583102
0.00589859
0.0060513
0.00643958
0.00666217
0.00731608
0.0070854
0.0068328
0.0066054
0.00642935
0.00629885
0.00630546
0.00637131
0.00657475
0.00667418
0.007425
0.00730552
0.00718341
0.00703284
0.00691041
0.00677852
0.00666331
0.00666289
0.0066984
0.00669826
0.00537361
0.00519471
0.00499907
0.00492965
0.00505079
0.00523009
0.00537064
0.00551478
0.00590783
0.00620794
0.00549116
0.00532333
0.00500332
0.00489202
0.00498588
0.00512695
0.00519836
0.00520724
0.00533229
0.00562492
0.00545526
0.00532651
0.00501576
0.00487074
0.00495561
0.00505432
0.00509043
0.00507006
0.00515634
0.00535425
0.00535853
0.00520231
0.0049151
0.00485914
0.00490355
0.00493344
0.00493056
0.004942
0.00508536
0.00525748
0.0051558
0.00498642
0.00488745
0.00486216
0.00486431
0.00485381
0.00485295
0.00491215
0.00510715
0.00530014
0.00521306
0.00504635
0.00496997
0.0049103
0.00487433
0.00485035
0.00485867
0.0049947
0.00526964
0.00552488
0.00560871
0.00534143
0.00520808
0.00511359
0.0050424
0.00498158
0.00498086
0.0051553
0.00545302
0.00574328
0.00629065
0.00590791
0.00556655
0.00536634
0.00526401
0.00516015
0.00512533
0.0053332
0.00563546
0.00585448
0.00662402
0.0063565
0.00606613
0.00575736
0.00553488
0.00535784
0.00524366
0.00552648
0.00577121
0.00595684
0.00684798
0.00665443
0.00644505
0.00617455
0.00584711
0.0055428
0.00539953
0.00565934
0.00580537
0.00589432
0.00564077
0.00516603
0.00494948
0.00468378
0.00459575
0.0045954
0.00456549
0.00456859
0.00464758
0.00483911
0.00556287
0.00518079
0.0048335
0.00460412
0.00454936
0.00454391
0.00450486
0.00449667
0.00457274
0.00474986
0.00538337
0.00517259
0.00482723
0.00462969
0.00454109
0.00450798
0.00444384
0.00444537
0.004523
0.00470149
0.0051257
0.00502542
0.00479248
0.00464146
0.00454172
0.00447939
0.00441315
0.00442432
0.00450885
0.00468915
0.0051339
0.00495938
0.00479648
0.00466719
0.00455831
0.00447909
0.00442267
0.00444385
0.00453532
0.00472773
0.00568757
0.00525659
0.00497951
0.00480472
0.00467814
0.00458049
0.00450135
0.00451285
0.00459043
0.00481052
0.00624723
0.00593474
0.00558841
0.00527382
0.00502961
0.00484337
0.0046639
0.0046235
0.00467948
0.0049334
0.00650263
0.00628885
0.00605087
0.00575968
0.00546254
0.00520869
0.00492963
0.00477822
0.00480459
0.00507182
0.00675429
0.00654988
0.00636215
0.00616232
0.00587586
0.00563186
0.00530978
0.00498736
0.00493854
0.00515682
0.00678019
0.00657667
0.00636984
0.00621799
0.00599103
0.00580572
0.00559013
0.00524637
0.00509149
0.00519348
0.00569858
0.00547185
0.00510348
0.00470956
0.0044597
0.00435679
0.00435296
0.00438338
0.00447445
0.00462714
0.00540044
0.00506674
0.00467293
0.0044089
0.00427492
0.00422731
0.00423745
0.00428235
0.00438367
0.00458333
0.00500922
0.00471698
0.00446222
0.00429967
0.00421121
0.0041805
0.00419621
0.00424886
0.00435555
0.00456026
0.00491841
0.00464898
0.00444053
0.00431496
0.00424145
0.00419993
0.00421317
0.00426614
0.00436896
0.00457284
0.00527433
0.0049196
0.00469005
0.00453993
0.00443129
0.00434771
0.00433815
0.00436804
0.00444599
0.00461318
0.00578351
0.00538565
0.00508141
0.00485693
0.00469587
0.00457243
0.00449635
0.00450551
0.00455357
0.00467101
0.00623365
0.00585418
0.00549527
0.00520368
0.00497549
0.00482152
0.00469419
0.00466544
0.00469528
0.00480555
0.00643799
0.00609739
0.00576783
0.00547247
0.0051931
0.00498467
0.00484813
0.00480112
0.00482921
0.00496961
0.00636917
0.0060552
0.00575062
0.0054828
0.00523172
0.00503963
0.00491732
0.00490294
0.00495032
0.00517584
0.00604843
0.00581241
0.00560126
0.00541225
0.00523664
0.00510938
0.00501992
0.00502391
0.0051016
0.00539195
0.00565438
0.00537665
0.00502661
0.00472326
0.00451411
0.00439139
0.00437256
0.00440001
0.00448363
0.00462946
0.00515141
0.00488755
0.00461027
0.00439038
0.00425124
0.00416995
0.00417236
0.00421003
0.00431205
0.00453712
0.00489909
0.00461208
0.00439708
0.0042476
0.00415104
0.00408503
0.00408668
0.00412532
0.00424043
0.00450885
0.00483384
0.004569
0.00437074
0.00423267
0.0041393
0.00407005
0.00406295
0.00409992
0.00422117
0.00452782
0.00499841
0.00471532
0.00450586
0.00435622
0.00424648
0.00415193
0.00410246
0.0041277
0.00424752
0.00457273
0.00522926
0.00494065
0.00471353
0.00452303
0.00437571
0.00426258
0.00420114
0.00421436
0.00430345
0.00459125
0.00543104
0.0051165
0.00489056
0.00469837
0.00453275
0.00441141
0.0043373
0.0043443
0.00440639
0.00464413
0.00550719
0.00520639
0.00503182
0.00486585
0.00470661
0.00459162
0.00451832
0.00452197
0.00457464
0.00477807
0.0055105
0.00531608
0.00518665
0.00503676
0.00491025
0.00482877
0.00475977
0.00474586
0.0048055
0.00505489
0.00556872
0.0055219
0.00538839
0.00527816
0.00521286
0.00518191
0.00512044
0.00502758
0.00506422
0.00523794
0.00606718
0.00590046
0.00559171
0.00538086
0.00518657
0.00500862
0.00487156
0.00482963
0.00486022
0.00499648
0.00541936
0.00529104
0.00508358
0.00488845
0.00468839
0.00450506
0.00443679
0.00445589
0.00457209
0.00493559
0.00509384
0.00484658
0.00463983
0.00444825
0.00427925
0.00418277
0.00418552
0.00424324
0.00443041
0.00491162
0.0050014
0.00470344
0.00445308
0.00426491
0.00413214
0.00407045
0.0040824
0.00414952
0.0043512
0.00488302
0.00504494
0.00473908
0.00447232
0.00427333
0.00413474
0.0040599
0.00406636
0.00412275
0.00430853
0.00480493
0.00523419
0.00494056
0.00465971
0.00443987
0.00428241
0.00417627
0.00415771
0.00418752
0.0043143
0.00469261
0.00544556
0.00515959
0.00488085
0.00466242
0.00449806
0.00438491
0.00432401
0.0043314
0.00439707
0.00464265
0.00568972
0.00539491
0.00512704
0.00492666
0.00477651
0.00467408
0.00459597
0.00455571
0.00457772
0.00471353
0.00594133
0.0056244
0.00539463
0.00523599
0.00512457
0.0050533
0.00499359
0.00488965
0.00486347
0.00489921
0.00616088
0.00585632
0.005695
0.00559576
0.00553988
0.00553599
0.00550773
0.00539825
0.00525352
0.00518625
0.00699905
0.00660671
0.00628702
0.00602231
0.00569402
0.00538378
0.00528909
0.00532183
0.00554663
0.00616652
0.00634862
0.00598445
0.00567839
0.00540012
0.00510184
0.00492231
0.00492184
0.00501955
0.00542145
0.00624775
0.00605631
0.0056747
0.00531893
0.0049961
0.004748
0.00464471
0.00466846
0.00480933
0.00524713
0.00602104
0.00577048
0.00535428
0.00501093
0.00475415
0.00457949
0.00451571
0.0045477
0.0046804
0.00505585
0.00574031
0.00565014
0.00524093
0.00493505
0.00471022
0.00455571
0.00449202
0.00451738
0.00462851
0.00491327
0.00550272
0.00572845
0.00535049
0.00506432
0.00484981
0.00470484
0.00461673
0.00462158
0.00468194
0.00487426
0.00534531
0.00596134
0.00559733
0.00532415
0.00512252
0.00498665
0.00489906
0.00486404
0.00488375
0.00498424
0.00531063
0.00625087
0.00588838
0.00564213
0.00547447
0.00537017
0.00531979
0.00526548
0.00521939
0.00523876
0.00541134
0.00657334
0.00622222
0.00602108
0.00589877
0.00584932
0.00585197
0.00582739
0.00572617
0.00562818
0.00567219
0.00692725
0.00659316
0.00644568
0.00637876
0.00640349
0.00649209
0.0065151
0.00642787
0.00617004
0.00608287
0.0087381
0.00818519
0.00778976
0.00736291
0.00694336
0.00676423
0.00677742
0.00691912
0.00734746
0.00821377
0.00799981
0.00750797
0.0070673
0.00665335
0.0063522
0.00626175
0.00632129
0.00658426
0.00726593
0.00825094
0.00782109
0.00717387
0.006621
0.0062071
0.0059515
0.00591094
0.00601596
0.00635338
0.00706935
0.008015
0.00760635
0.00688723
0.00636853
0.00599878
0.0057847
0.00576308
0.00587768
0.00621251
0.00691216
0.00778538
0.0074057
0.00677437
0.00630277
0.00595822
0.00576071
0.00573953
0.00584422
0.0061529
0.00678264
0.00761259
0.00736109
0.00682628
0.00641679
0.00611306
0.00594002
0.00590856
0.00597614
0.00618616
0.00671228
0.00752294
0.00754925
0.00708983
0.0067154
0.00645567
0.00631565
0.00628249
0.00631694
0.00642216
0.00675749
0.00752007
0.00788657
0.00744454
0.00712284
0.00694043
0.00686366
0.00685515
0.00686954
0.00688003
0.00700228
0.00758449
0.00831428
0.00789394
0.00764838
0.00754307
0.00753424
0.00757903
0.00761077
0.00756101
0.00751911
0.00784015
0.00881665
0.00842475
0.00825892
0.00821426
0.00827093
0.00840569
0.00852877
0.00852948
0.00838134
0.00851064
0.0100652
0.00942592
0.00888343
0.00841091
0.00814965
0.00814282
0.00829541
0.00869715
0.00932069
0.0101777
0.00947674
0.00886749
0.00828409
0.00786392
0.00765544
0.00767132
0.00790746
0.00842066
0.00916312
0.0100981
0.00929744
0.00851047
0.00789731
0.00752234
0.00735423
0.00738502
0.00765474
0.00819597
0.00895058
0.00982537
0.00904986
0.00827301
0.00773612
0.00739087
0.00723818
0.00726415
0.00751686
0.00801702
0.00873681
0.00953104
0.00892954
0.00820786
0.0077171
0.00737979
0.00722713
0.00724092
0.00747073
0.0079254
0.0085873
0.00935937
0.00895903
0.00836154
0.00793408
0.00758801
0.00741028
0.00738625
0.00754206
0.00790905
0.00853732
0.00930714
0.00923957
0.0087534
0.00832984
0.00796981
0.00776904
0.00772394
0.00781942
0.00806851
0.00860467
0.00937676
0.00969809
0.00924425
0.00882305
0.00848742
0.0083064
0.0082645
0.00834543
0.00850019
0.00884144
0.00952939
0.0102742
0.00981009
0.00940629
0.00911697
0.00898942
0.00898083
0.00910915
0.00927344
0.00945387
0.00991386
0.0109603
0.0104597
0.0100773
0.00984734
0.00976178
0.00980617
0.0100145
0.0102866
0.010526
0.0108119
0.0103222
0.00965983
0.00907571
0.00867876
0.00852573
0.00859177
0.00889036
0.00939532
0.0100364
0.0108216
0.00983111
0.00915156
0.00853779
0.00818778
0.00807104
0.00815834
0.00850007
0.00903175
0.00968533
0.0104713
0.00956556
0.00875598
0.00818087
0.00787693
0.00777939
0.00786091
0.0082045
0.00873667
0.00938358
0.0101463
0.00931411
0.00855818
0.00804523
0.00775003
0.00764782
0.00770728
0.00800861
0.00849938
0.00912623
0.00984087
0.0092303
0.00851521
0.00803779
0.00773362
0.00761872
0.00765837
0.00792923
0.00838355
0.00899004
0.00970184
0.0093308
0.00870939
0.00829665
0.00792424
0.00774776
0.00773353
0.00795006
0.00837084
0.00896852
0.0096856
0.00966063
0.00914581
0.00873923
0.00830336
0.00805191
0.00800501
0.00816825
0.00852937
0.00908029
0.00980648
0.0101513
0.00970477
0.0092628
0.00880134
0.00853779
0.00848447
0.00864022
0.008947
0.00937821
0.01002
0.0107937
0.0103266
0.00983414
0.00939602
0.00919323
0.00916855
0.00937131
0.00969408
0.0100431
0.0105028
0.0115534
0.0110041
0.0104814
0.0101138
0.00996667
0.00997718
0.0102381
0.0106414
0.0110436
0.011371
0.00703965
0.00685031
0.00667395
0.00656336
0.00651559
0.00649714
0.00651421
0.00664638
0.00689294
0.00721009
0.00685729
0.0066028
0.00641175
0.00633039
0.00631252
0.0063014
0.00632934
0.00646995
0.00669699
0.00699992
0.00675686
0.00645405
0.00628736
0.00620993
0.00618054
0.00617611
0.00623009
0.00636481
0.00656716
0.00681882
0.00667526
0.00637956
0.00623145
0.0061586
0.00612823
0.00612584
0.00618346
0.00629408
0.00645092
0.00662778
0.00665177
0.00635823
0.00622158
0.00615074
0.00611984
0.00611582
0.00616181
0.00624159
0.00636927
0.0065389
0.00669616
0.0064201
0.0063077
0.00620507
0.00614345
0.00613247
0.00616104
0.00623207
0.00636132
0.00653653
0.00685193
0.00659376
0.0065033
0.006345
0.00620851
0.00618207
0.00620215
0.00627439
0.00640739
0.00660978
0.00713707
0.00684725
0.00677716
0.0065425
0.00632388
0.00626737
0.00628907
0.00637016
0.00650338
0.00672946
0.00749899
0.00720785
0.00707286
0.00675603
0.00650036
0.0064261
0.00644771
0.00654113
0.00667353
0.00688527
0.00789929
0.0076474
0.00730053
0.00696848
0.00672927
0.00664497
0.00664907
0.00674392
0.00690725
0.00705561
0.00466228
0.00465477
0.0046537
0.00463701
0.00453396
0.00443917
0.00441119
0.00445176
0.00451296
0.00458699
0.00461614
0.00454427
0.00449111
0.00448331
0.00441692
0.00433116
0.00432635
0.00437107
0.00443918
0.00453477
0.00459844
0.00446923
0.00439633
0.00434984
0.00428755
0.00425858
0.00426954
0.00432009
0.00438814
0.00445817
0.00455319
0.00440148
0.00432624
0.00426822
0.00422581
0.00421475
0.00422777
0.00426959
0.00432467
0.00437225
0.00452362
0.00437222
0.00430026
0.00425031
0.00422135
0.0042111
0.00421141
0.00423285
0.00427589
0.00432657
0.00451853
0.00436793
0.00430153
0.00425845
0.00423544
0.00422399
0.00421982
0.00423401
0.00427761
0.00433049
0.00455673
0.00441622
0.00436529
0.0043048
0.00427333
0.00426795
0.00426868
0.00428328
0.00432438
0.00437746
0.00465786
0.0045166
0.00448732
0.00439751
0.00432563
0.00431092
0.00432111
0.00433411
0.00436526
0.00442365
0.00481851
0.00467719
0.00462649
0.0045106
0.00440537
0.00435954
0.00436359
0.00437528
0.00440514
0.0044673
0.00498772
0.00487329
0.00469143
0.00457508
0.00448194
0.00442192
0.00442431
0.00444969
0.00448
0.00451707
0.00358694
0.00359318
0.00361679
0.00361747
0.00349411
0.00344707
0.00344963
0.00346579
0.00347671
0.00350416
0.003583
0.00355953
0.00354943
0.00355595
0.00343527
0.00338793
0.00338997
0.00340708
0.00343124
0.00348208
0.00360456
0.00355423
0.00351693
0.00346617
0.00336425
0.00334038
0.00334809
0.00337528
0.00341326
0.00346751
0.00359244
0.00351103
0.0034561
0.00338589
0.0033248
0.00331089
0.00332011
0.00335297
0.00339765
0.00344754
0.00354095
0.00346252
0.00340711
0.00335154
0.00331971
0.00331037
0.00331236
0.00333458
0.00337196
0.00341222
0.00351932
0.003441
0.00338882
0.00334999
0.00332922
0.00332097
0.00332049
0.00333853
0.00337045
0.00340541
0.00352016
0.00344806
0.0034112
0.00338142
0.00336486
0.00335711
0.00335565
0.00336874
0.00339811
0.0034352
0.00355137
0.00349742
0.00347021
0.00343472
0.00341223
0.0034002
0.00339511
0.00339834
0.00341851
0.00345804
0.00362561
0.0035989
0.00356281
0.00350864
0.00346385
0.00344164
0.00343113
0.0034285
0.00343549
0.00347034
0.0037529
0.00371453
0.00362368
0.00357113
0.00353199
0.00348686
0.00347916
0.00348331
0.00348731
0.00350012
0.00308872
0.0030729
0.00307283
0.00308733
0.00304548
0.0029949
0.00299649
0.00301892
0.00302898
0.00304875
0.00308118
0.00305023
0.0030454
0.00305179
0.00298903
0.00294802
0.00294742
0.00296509
0.00298515
0.00302753
0.00308519
0.00304976
0.00303162
0.00301675
0.00294507
0.00291271
0.00291286
0.00293378
0.00296554
0.00301735
0.00309891
0.00305485
0.00302179
0.00298345
0.00291626
0.00289129
0.00289105
0.00291014
0.0029463
0.00299781
0.00311593
0.00305466
0.0030082
0.00295558
0.00290608
0.00289043
0.00288923
0.00290197
0.00293113
0.00297506
0.0031046
0.00303738
0.0029828
0.00293775
0.00290719
0.00289534
0.00289384
0.00290684
0.00293302
0.00297218
0.0030699
0.00301606
0.00297567
0.00294357
0.00292272
0.00291367
0.00291119
0.00292003
0.00294342
0.00298066
0.00307432
0.00303847
0.00300816
0.00298591
0.00296902
0.00294824
0.00293871
0.00293994
0.00296179
0.00300338
0.00313484
0.0031086
0.00306992
0.00304002
0.00301889
0.00298797
0.00297218
0.00297134
0.00298533
0.00301902
0.00324141
0.00319142
0.00314204
0.00310665
0.00308037
0.00303898
0.00301885
0.00302045
0.00302879
0.00304237
0.00283806
0.00281794
0.00279804
0.00278691
0.00276754
0.00274501
0.00274875
0.00277133
0.00278799
0.00280894
0.00282671
0.00279566
0.00277519
0.00276732
0.00274313
0.00271972
0.00271903
0.00273398
0.00275428
0.0027871
0.0028248
0.00278782
0.00276364
0.00275325
0.00272352
0.00270014
0.00269764
0.00270924
0.00273125
0.00276664
0.00282528
0.00278768
0.00276218
0.00274446
0.00271029
0.00268949
0.00268581
0.00269276
0.0027113
0.00273925
0.00282982
0.00279239
0.00276676
0.00274017
0.00270624
0.00269106
0.00268745
0.0026912
0.00270561
0.0027283
0.00284912
0.0028073
0.00277036
0.00273608
0.00270838
0.00269617
0.00269237
0.002696
0.00270923
0.00272977
0.00284944
0.00280562
0.00276855
0.00273818
0.0027175
0.00270775
0.00270345
0.00270397
0.00271571
0.00273772
0.00284536
0.00281058
0.0027797
0.00275966
0.00274828
0.00273396
0.00272129
0.00271924
0.00273233
0.00275936
0.00288393
0.00285066
0.00282322
0.00280482
0.00278873
0.00276377
0.00274429
0.00274234
0.0027552
0.00277937
0.00295156
0.00291271
0.00288098
0.00285174
0.00283235
0.00280461
0.00277361
0.00277326
0.00278834
0.0028029
0.00271811
0.00269986
0.00268153
0.00266525
0.00265202
0.00264317
0.00264647
0.00265872
0.00267302
0.00268977
0.00271224
0.00268953
0.00267042
0.0026547
0.00264086
0.00263031
0.0026298
0.0026378
0.00265122
0.00267155
0.00271039
0.0026854
0.00266376
0.002647
0.00263136
0.00261955
0.00261737
0.00262312
0.00263521
0.00265437
0.00271125
0.0026852
0.00266155
0.00264316
0.00262538
0.0026139
0.00261066
0.00261358
0.00262357
0.00263832
0.00271496
0.00268741
0.00266357
0.00264387
0.00262556
0.00261529
0.00261183
0.00261279
0.00262044
0.00263184
0.00272927
0.00269854
0.00267132
0.00264712
0.00262927
0.00262036
0.00261666
0.00261691
0.00262338
0.0026342
0.00273696
0.00270595
0.00267657
0.00265351
0.00263917
0.00263207
0.0026263
0.00262499
0.00263092
0.00264307
0.00274032
0.00271338
0.00268705
0.00266961
0.00266174
0.00265225
0.00264121
0.00263811
0.00264355
0.00265662
0.00277746
0.00274436
0.00271827
0.00270266
0.00269082
0.00267653
0.00265934
0.00265452
0.00265939
0.00267201
0.00280206
0.00277624
0.0027533
0.00273332
0.00271705
0.00270161
0.00267952
0.00267337
0.00267955
0.00268939
0.00271036
0.00269257
0.00267822
0.0026634
0.00264865
0.00263999
0.00264356
0.00265395
0.0026646
0.00267892
0.00270782
0.00268506
0.0026678
0.0026524
0.00263751
0.00262763
0.00262773
0.00263415
0.0026449
0.00266328
0.00270875
0.00268436
0.00266308
0.00264464
0.00262828
0.00261777
0.00261599
0.00262084
0.00263173
0.00265022
0.00271194
0.00268572
0.00266052
0.00263884
0.00262191
0.00261197
0.00260916
0.00261222
0.00262152
0.00263608
0.0027176
0.0026873
0.00265978
0.00263762
0.00262129
0.00261186
0.00260855
0.00260994
0.00261703
0.00262824
0.00272432
0.00269235
0.00266246
0.0026406
0.00262559
0.00261719
0.00261362
0.00261423
0.00262074
0.00263133
0.00273063
0.00269886
0.00267343
0.00264954
0.00263687
0.00262864
0.00262396
0.00262372
0.00263002
0.00264161
0.00274464
0.00271274
0.00268791
0.00266887
0.00265794
0.00264703
0.00263893
0.00263716
0.00264168
0.00265347
0.00277187
0.00274162
0.00271737
0.00269756
0.00268305
0.00267083
0.00265713
0.00265359
0.00265606
0.00266549
0.00278861
0.00276485
0.00274136
0.00272244
0.00270499
0.00269084
0.00267573
0.00267283
0.00267573
0.00268184
0.000911361
0.000593573
0.000597796
0.000566577
0.000297698
0.000297801
0.000566909
0.000598166
0.000593964
0.000911658
0.000593736
0.000306392
0.000225348
0.000197949
0.000157237
0.000157248
0.000198002
0.000225444
0.000306515
0.000593998
0.000598086
0.000225386
0.000151706
0.000137053
0.000130928
0.000130946
0.000137059
0.000151664
0.000225404
0.000598335
0.000566813
0.000197977
0.000137054
0.000127172
0.000124725
0.000124664
0.000127112
0.000136996
0.000197973
0.000567104
0.000297733
0.000157236
0.000130942
0.00012467
0.000122625
0.000122618
0.00012465
0.000130865
0.000157197
0.000297813
0.00029781
0.000157215
0.000130866
0.000124649
0.000122617
0.000122618
0.00012465
0.000130865
0.000157195
0.000297778
0.00056705
0.000197962
0.000136996
0.000127101
0.00012465
0.000124649
0.000127099
0.000136975
0.000197901
0.000566682
0.000598298
0.000225396
0.000151662
0.000136995
0.000130862
0.00013083
0.000136946
0.000151456
0.000225186
0.000597985
0.000594052
0.000306496
0.000225394
0.000197915
0.000157142
0.000156985
0.000197744
0.000225196
0.000306261
0.000593673
0.000911881
0.000593927
0.000598183
0.00056668
0.000297497
0.000297572
0.000566725
0.000597959
0.000593662
0.000911402
0.000288142
0.000202268
0.000194888
0.000186605
0.000139142
0.000139159
0.000186665
0.000194951
0.000202337
0.000288212
0.00020229
0.000140393
0.000123145
0.000117196
0.000110109
0.000110111
0.000117206
0.000123165
0.00014041
0.00020233
0.000194933
0.000123151
0.000108342
0.000104604
0.000103027
0.000103033
0.000104605
0.000108323
0.000123145
0.000194978
0.000186643
0.0001172
0.000104604
0.000101508
0.00010042
0.000100395
0.000101484
0.000104581
0.000117189
0.000186693
0.000139146
0.000110108
0.000103033
0.000100397
9.93311e-05
9.93291e-05
0.000100391
0.000103002
0.000110091
0.000139152
0.000139164
0.000110096
0.000103002
0.00010039
9.93292e-05
9.93296e-05
0.000100392
0.000103003
0.000110091
0.00013915
0.000186684
0.000117187
0.000104581
0.000101481
0.000100392
0.000100392
0.000101481
0.000104578
0.000117181
0.00018671
0.000194975
0.000123144
0.000108323
0.000104582
0.000103003
0.000102996
0.000104572
0.000108303
0.000123136
0.000194995
0.000202347
0.000140404
0.000123145
0.000117182
0.000110082
0.00011007
0.000117177
0.000123137
0.000140399
0.00020236
0.000288236
0.000202333
0.000194969
0.000186702
0.000139138
0.000139146
0.000186709
0.000194992
0.00020236
0.000288282
0.000122283
0.000102508
9.90314e-05
9.64945e-05
8.942e-05
8.94225e-05
9.65034e-05
9.90412e-05
0.00010252
0.000122297
0.000102511
8.99518e-05
8.60929e-05
8.45659e-05
8.33323e-05
8.33326e-05
8.45678e-05
8.60969e-05
8.99547e-05
0.000102524
9.90377e-05
8.60936e-05
8.28173e-05
8.16229e-05
8.10981e-05
8.10996e-05
8.16232e-05
8.28165e-05
8.60963e-05
9.90504e-05
9.64995e-05
8.45665e-05
8.16229e-05
8.04611e-05
7.9965e-05
7.99615e-05
8.04584e-05
8.16209e-05
8.45679e-05
9.6512e-05
8.94206e-05
8.33323e-05
8.10995e-05
7.99618e-05
7.94505e-05
7.94503e-05
7.99611e-05
8.10957e-05
8.33325e-05
8.94261e-05
8.94238e-05
8.33325e-05
8.1095e-05
7.99607e-05
7.94504e-05
7.94507e-05
7.99615e-05
8.10964e-05
8.33332e-05
8.94276e-05
9.65101e-05
8.45672e-05
8.1621e-05
8.04582e-05
7.99615e-05
7.99621e-05
8.04594e-05
8.16241e-05
8.45727e-05
9.6553e-05
9.90502e-05
8.60966e-05
8.28173e-05
8.16222e-05
8.10969e-05
8.10989e-05
8.16258e-05
8.28634e-05
8.61392e-05
9.90854e-05
0.000102528
8.99601e-05
8.60978e-05
8.45711e-05
8.3336e-05
8.33771e-05