/*--------------------------------*- C++ -*----------------------------------*\
  =========                 |
  \\      /  F ield         | OpenFOAM: The Open Source CFD Toolbox
   \\    /   O peration     | Website:  https://openfoam.org
    \\  /    A nd           | Version:  9
     \\/     M anipulation  |
\*---------------------------------------------------------------------------*/
FoamFile
{
    format      ascii;
    class       volScalarField;
    location    "1";
    object      f15.gas;
}
// * * * * * * * * * * * * * * * * * * * * * * * * * * * * * * * * * * * * * //

dimensions      [0 0 0 0 0 0 0];

internalField   nonuniform List<scalar> 
137980
(
0.00962939
0.0104806
0.00967029
0.00922834
0.00907359
0.00916098
0.00954722
0.00994063
0.0103165
0.0104152
0.0101258
0.0105491
0.0100495
0.00948718
0.00938113
0.00914913
0.00934834
0.00984235
0.0104888
0.0108257
0.00951569
0.00945652
0.0102182
0.0101482
0.0101603
0.0102064
0.0100413
0.0102138
0.0103476
0.0103643
0.00941139
0.00890761
0.00919556
0.00963323
0.0097978
0.0104448
0.0101873
0.00970887
0.00896186
0.00877362
0.0086427
0.00841081
0.00872031
0.00902116
0.00928982
0.00991693
0.010136
0.00992344
0.00879605
0.0083902
0.00837259
0.00837298
0.00846212
0.00868714
0.00913312
0.009517
0.0098882
0.00984909
0.00867235
0.00867472
0.00837407
0.00862776
0.0089541
0.00896703
0.00912505
0.00950427
0.00999647
0.00977484
0.00878679
0.0092994
0.00871338
0.00929245
0.00919212
0.00893943
0.00891378
0.00919758
0.0106571
0.010437
0.00896553
0.00925906
0.0087657
0.00916801
0.00897741
0.00850717
0.00830401
0.00856842
0.00887748
0.0108544
0.0100365
0.00912098
0.00903169
0.00926503
0.00884321
0.00840888
0.00817096
0.00843661
0.00830461
0.00892297
0.00985014
0.00922785
0.00685634
0.00771264
0.00762582
0.00746717
0.0074595
0.00746022
0.00748821
0.0076283
0.00757375
0.0071549
0.00781528
0.00788496
0.00799655
0.00791013
0.00781266
0.00790492
0.00813677
0.00819833
0.00793444
0.00762252
0.00753277
0.00765644
0.00803599
0.00813461
0.00801701
0.00814998
0.00838158
0.00845247
0.00836151
0.00821823
0.00740328
0.00753356
0.00776111
0.00792798
0.0078259
0.00808402
0.0081828
0.00820375
0.00807426
0.00778668
0.00720917
0.00736168
0.00767136
0.00775494
0.00765623
0.00781133
0.00786044
0.00779409
0.00761357
0.00739902
0.00706639
0.00727736
0.00756099
0.00768956
0.0076772
0.00759409
0.00759522
0.00758042
0.00739575
0.00728714
0.00718157
0.00754073
0.0077844
0.0077002
0.00772413
0.00767741
0.00756025
0.00746109
0.00727826
0.00731161
0.00764074
0.00775925
0.00770613
0.00766788
0.00774567
0.00767474
0.00776146
0.00771652
0.00744059
0.00729376
0.00760895
0.00765025
0.00751947
0.00744675
0.0075605
0.00765825
0.0073778
0.0075979
0.0075806
0.00738217
0.00719213
0.00709225
0.00702402
0.00711427
0.00731066
0.00754539
0.00728879
0.00743445
0.00740714
0.00728554
0.00618412
0.00618042
0.0063158
0.00632427
0.00628113
0.00623463
0.0062243
0.00624347
0.00626491
0.00633224
0.00625642
0.00645702
0.00649185
0.00648507
0.00643963
0.0063819
0.00636984
0.00636205
0.0063284
0.00634146
0.00654415
0.00655575
0.00653858
0.00651245
0.00646078
0.00640595
0.00637848
0.00633392
0.00631467
0.00636854
0.00657402
0.00657665
0.00654448
0.00650533
0.00640685
0.00636342
0.00629529
0.00627307
0.00632019
0.00637509
0.00663502
0.00654122
0.0064545
0.00642127
0.0064061
0.00634897
0.00629063
0.00627833
0.00632202
0.00639812
0.00643909
0.00647015
0.00650648
0.00651144
0.00645113
0.00636301
0.00633878
0.00636779
0.00644398
0.00641117
0.00646061
0.00656819
0.00661246
0.00653347
0.00642992
0.00640739
0.00644812
0.00652247
0.00651337
0.00648893
0.0065982
0.00671087
0.0065951
0.00640533
0.00638652
0.00643688
0.00655457
0.00655356
0.006504
0.00649287
0.00666335
0.0065794
0.00628251
0.00635254
0.00637509
0.00653324
0.00656201
0.00652829
0.00633001
0.00634429
0.00628908
0.00612522
0.00620599
0.00624756
0.00631572
0.00653121
0.00650139
0.00631714
0.0060456
0.00604859
0.00586623
0.005899
0.00603475
0.00614236
0.00620809
0.00617795
0.00610173
0.00618604
0.00621666
0.00616514
0.00590126
0.00591577
0.0060137
0.00606895
0.00604154
0.00609385
0.00618264
0.00627349
0.00625456
0.00622136
0.00590415
0.00589707
0.00593205
0.0059403
0.00622021
0.00635051
0.00634695
0.00631963
0.00626488
0.00622821
0.00593132
0.00591859
0.00598978
0.00633967
0.00642026
0.00640527
0.00636545
0.00628429
0.00621771
0.00621182
0.00614596
0.00619291
0.00636566
0.00647474
0.0064562
0.00640593
0.00628961
0.00617819
0.00615196
0.006155
0.00634324
0.00640814
0.00654726
0.00652258
0.00644877
0.00628628
0.00616232
0.00613532
0.00613666
0.00613823
0.006611
0.00667821
0.00664404
0.00650916
0.00625311
0.00614907
0.00612148
0.00613187
0.00613366
0.00610142
0.00680486
0.00676671
0.00653694
0.00620411
0.00615273
0.00612173
0.0061344
0.00616946
0.00612248
0.00595822
0.00682808
0.00657188
0.00611017
0.00613357
0.00615718
0.00616925
0.00621949
0.00620982
0.00604292
0.00592185
0.0065037
0.00585879
0.00607842
0.00620107
0.00623478
0.0062393
0.00631141
0.00612312
0.00609391
0.00601205
0.00585159
0.005742
0.00562274
0.00563855
0.00570035
0.00580673
0.00594848
0.00600629
0.00600028
0.00599251
0.00601622
0.0059191
0.00584982
0.00587483
0.00591661
0.00601283
0.00605942
0.00603324
0.00598656
0.00597861
0.00609156
0.00591423
0.00587915
0.00588428
0.00606488
0.00610368
0.00608459
0.00600877
0.00591415
0.00590532
0.006183
0.00587963
0.00591029
0.00605478
0.00612479
0.00611028
0.00605624
0.00592707
0.00587459
0.00587699
0.00639428
0.00604683
0.00601681
0.00609382
0.00614324
0.00611507
0.00601219
0.00590239
0.00587731
0.00589616
0.00649512
0.00623912
0.00624631
0.00625675
0.00621109
0.00611868
0.00595479
0.00589225
0.0059234
0.0059191
0.00667671
0.00654005
0.00647124
0.00630989
0.0061288
0.00596072
0.00589541
0.00591618
0.00597555
0.00592059
0.00671466
0.00663927
0.00637924
0.00593758
0.0059264
0.00588907
0.00588608
0.00601921
0.00599731
0.00583395
0.00666425
0.00624538
0.00564807
0.00577002
0.00591725
0.00589757
0.00605878
0.00606092
0.00600365
0.00578959
0.00651517
0.00520281
0.00544635
0.00590634
0.00606318
0.00608554
0.00611254
0.00607807
0.00597342
0.00576858
0.00447045
0.00452387
0.00462577
0.00491212
0.00541786
0.00572107
0.00585443
0.00589209
0.00587419
0.00584446
0.00451039
0.00462712
0.00496757
0.0054684
0.00572876
0.00585888
0.00590317
0.0058965
0.00586254
0.00579591
0.00462246
0.00478362
0.00524998
0.00563244
0.00581005
0.00589681
0.00590331
0.00588082
0.00582366
0.00572119
0.00476307
0.0050099
0.0054194
0.00570499
0.00586078
0.00589729
0.00589331
0.00587232
0.0058192
0.00571514
0.00523406
0.00552789
0.00575805
0.00590631
0.0059644
0.00596588
0.00594431
0.00590984
0.00583006
0.00570889
0.00624934
0.00623789
0.006209
0.00617773
0.00614266
0.00606347
0.00598863
0.00592576
0.0057835
0.00563044
0.00644894
0.00639027
0.00632133
0.00625508
0.00618468
0.00607529
0.00599805
0.00585617
0.00562147
0.00544353
0.00636849
0.00632696
0.00624018
0.006151
0.00600924
0.00589141
0.00576624
0.00550826
0.00534989
0.00525497
0.00605305
0.0059951
0.0058412
0.00563157
0.00553881
0.00541672
0.00527622
0.00522132
0.00519278
0.00519014
0.00519681
0.00483473
0.00478828
0.00489219
0.00506937
0.0050451
0.00503953
0.00508841
0.00513783
0.0051739
0.00444929
0.00445348
0.00441895
0.00427462
0.00428147
0.00451993
0.00525075
0.00564137
0.00566149
0.00566175
0.00423733
0.00434321
0.00432673
0.00424175
0.00427492
0.00457026
0.00522227
0.00555031
0.00559538
0.00560488
0.00388013
0.00403854
0.00406834
0.00411113
0.00426595
0.00472051
0.00521365
0.00545615
0.00547364
0.00544609
0.00386906
0.00390509
0.00395469
0.00405513
0.00431967
0.00471927
0.0050239
0.00520746
0.00525371
0.00525053
0.00391296
0.00390104
0.00393149
0.00401166
0.00420142
0.00451197
0.00481368
0.00501089
0.00509257
0.00512811
0.00430992
0.00423501
0.00426003
0.00434623
0.00455449
0.00479997
0.00495956
0.00504334
0.00508516
0.00511234
0.00519113
0.00504058
0.00499666
0.00502621
0.00510098
0.00514655
0.00514795
0.00514475
0.00512484
0.00511693
0.00552981
0.00543137
0.00537547
0.00535936
0.00531806
0.00528344
0.00521409
0.00517901
0.00509626
0.00507075
0.00555057
0.00549891
0.0054529
0.00537722
0.00526004
0.00516348
0.0050419
0.00498177
0.00486577
0.00484755
0.00541889
0.00535337
0.00510067
0.00478236
0.00460621
0.00456728
0.00459639
0.00455332
0.00446348
0.00442713
0.00378441
0.00352606
0.00331026
0.00332729
0.00348598
0.00411063
0.00478352
0.00491215
0.00489902
0.00504085
0.00370697
0.00360619
0.00340481
0.00337113
0.00342612
0.00383028
0.00460843
0.00484335
0.00474382
0.00484709
0.00351232
0.00356901
0.00350359
0.00338709
0.00341149
0.0037395
0.0044609
0.00466487
0.00464502
0.00452183
0.00339817
0.00346862
0.00343736
0.00334346
0.00337374
0.00371631
0.00427254
0.00437373
0.00431211
0.00416471
0.00317148
0.00320551
0.00320807
0.00321107
0.00331052
0.00372673
0.00402535
0.00402086
0.00397404
0.00405189
0.00334798
0.00315672
0.00314424
0.00317111
0.00328014
0.00355918
0.00368064
0.00372521
0.00386284
0.00409868
0.00388312
0.00339543
0.0032338
0.00323
0.00327071
0.00334963
0.00348551
0.00362644
0.00391734
0.00414307
0.00446407
0.00407577
0.00370552
0.00348652
0.00343502
0.00345267
0.00350943
0.0036408
0.00398543
0.00415702
0.00470539
0.00451661
0.00430817
0.00411197
0.00396156
0.00385246
0.0038589
0.00391661
0.0040917
0.00415815
0.00478983
0.00469701
0.00459974
0.00447861
0.00437775
0.00426866
0.00417117
0.00416868
0.00418879
0.00417967
0.00307876
0.00294815
0.00281797
0.00277856
0.00288077
0.00303095
0.00314334
0.00323831
0.0035877
0.00383692
0.00318049
0.00306002
0.00282972
0.00275801
0.00283708
0.00294901
0.00300587
0.00300047
0.00308723
0.00333697
0.00315959
0.00307284
0.00284793
0.0027507
0.00281845
0.00289292
0.00291771
0.00288859
0.00294143
0.00309777
0.00309299
0.00298429
0.00277792
0.00274213
0.00277907
0.00279658
0.00277972
0.00277722
0.00288296
0.00301431
0.0029458
0.00282485
0.00275733
0.00274352
0.00274397
0.00272566
0.00271895
0.00275268
0.00290301
0.00305027
0.00299151
0.00286586
0.00281409
0.00278156
0.00275009
0.00272333
0.00272319
0.00282132
0.00303434
0.003236
0.0033137
0.00310195
0.00300516
0.00293542
0.0028805
0.00282459
0.00281506
0.00294097
0.00318055
0.00342329
0.00388252
0.0035648
0.00328519
0.00313148
0.00305557
0.00296266
0.00292141
0.00307517
0.00332357
0.0035146
0.00415728
0.00394795
0.00370639
0.00344639
0.00326645
0.00312303
0.00300725
0.00322191
0.00341904
0.00359161
0.00433063
0.00418447
0.00402817
0.0038027
0.0035213
0.00326349
0.00313511
0.0033231
0.00343518
0.00352266
0.00331862
0.00293549
0.00277297
0.00258362
0.00252939
0.00253208
0.00249953
0.0024779
0.00252143
0.0026427
0.00326423
0.00296102
0.00269934
0.00253326
0.00250824
0.00250754
0.00247161
0.00243796
0.00247904
0.00259321
0.00313267
0.00297592
0.00270991
0.00257233
0.00251593
0.00249364
0.0024371
0.00241367
0.00245623
0.00257062
0.00293354
0.00286465
0.00269492
0.00259475
0.00252536
0.00247908
0.00241691
0.00240723
0.00245451
0.00257131
0.00294783
0.00282614
0.00270772
0.00262269
0.00254351
0.00248188
0.00242508
0.00243117
0.00248251
0.00260814
0.00343027
0.00308359
0.002871
0.00273856
0.00264024
0.00256219
0.00248427
0.00248203
0.00252437
0.0026731
0.0038897
0.00365082
0.00337954
0.00312983
0.00293347
0.00277797
0.00261844
0.00255965
0.00258914
0.00276524
0.00408076
0.00392866
0.00375131
0.00352319
0.00328762
0.00307946
0.00283835
0.00267876
0.00268067
0.00286134
0.0042892
0.00413745
0.00400346
0.00385417
0.00362467
0.00343178
0.00315737
0.00285139
0.0027687
0.00291415
0.00429596
0.00415013
0.00399685
0.00388695
0.0037083
0.00355595
0.00338601
0.00306859
0.00288457
0.00293424
0.00336167
0.00319466
0.00291074
0.00260073
0.00240985
0.00233417
0.00232512
0.00233919
0.00238823
0.00248049
0.0031197
0.00288122
0.0025763
0.00238523
0.00229358
0.00225861
0.00226177
0.00228517
0.00234353
0.00246733
0.00281548
0.00260711
0.00242743
0.00231752
0.00225992
0.00223747
0.00224406
0.00227286
0.00233502
0.00246349
0.00275466
0.0025649
0.00242326
0.00234752
0.00230213
0.00227294
0.002278
0.00230871
0.00236964
0.00249553
0.00306847
0.00280177
0.00263852
0.00253432
0.00246047
0.00239742
0.00238368
0.00239878
0.00243907
0.002535
0.0035094
0.00320033
0.0029675
0.00280082
0.00268049
0.00258613
0.00251627
0.00251016
0.00252871
0.00258919
0.00388943
0.00359518
0.00331441
0.00308577
0.00291257
0.00278607
0.00268659
0.00263154
0.0026385
0.00269113
0.00405384
0.00379152
0.00353609
0.00330542
0.003083
0.00290823
0.00279592
0.00273019
0.00273504
0.00280754
0.00398052
0.00374199
0.00350615
0.00329451
0.00309336
0.00293239
0.00283301
0.00279101
0.00280916
0.00294954
0.00368538
0.00350881
0.00334853
0.00320524
0.00306879
0.00296357
0.00289062
0.00285941
0.00289801
0.0030967
0.00331013
0.00309766
0.0028311
0.00260533
0.00245773
0.00236629
0.00233379
0.00234236
0.00238214
0.00246503
0.002905
0.00272028
0.00252378
0.00237266
0.00227802
0.00221541
0.00220737
0.00222428
0.00228031
0.00241786
0.00272114
0.00252533
0.00238239
0.00228478
0.00222
0.00217239
0.00216273
0.00218071
0.00224619
0.00241347
0.00268561
0.0025065
0.00237443
0.00228585
0.00222935
0.00217629
0.0021546
0.00217154
0.00224226
0.00244703
0.00282434
0.00262909
0.00249009
0.00239464
0.00232155
0.00224915
0.00219628
0.002202
0.00227199
0.00249476
0.00301443
0.00281416
0.00265523
0.00252231
0.00241925
0.00233366
0.00227362
0.00226662
0.00231256
0.00251072
0.00318042
0.00295404
0.00279278
0.00265667
0.00253623
0.00244289
0.00237522
0.00235783
0.00238594
0.00254072
0.00323886
0.00301834
0.00289875
0.00278284
0.00266548
0.00257557
0.00250736
0.00248309
0.00250399
0.00263318
0.00322696
0.00309265
0.00301206
0.00290759
0.00281385
0.00274886
0.00268182
0.00264223
0.00266662
0.00283732
0.00325548
0.00324502
0.00315831
0.00308062
0.00303525
0.00301023
0.00294864
0.00284168
0.00284702
0.00295413
0.00359166
0.00348094
0.00324866
0.00309573
0.00294138
0.00279087
0.00267336
0.00261424
0.00262115
0.00270057
0.00306816
0.00300295
0.00286341
0.00272716
0.00257586
0.00243248
0.00236467
0.00236716
0.00243229
0.00267419
0.00283092
0.00266728
0.00253103
0.00240129
0.00228229
0.00220843
0.00220379
0.00223268
0.00234855
0.00268642
0.00277586
0.00257381
0.0024045
0.002279
0.00218822
0.0021422
0.00214607
0.00218134
0.00230813
0.00268879
0.00282725
0.0026175
0.00243247
0.00229624
0.00220055
0.00214451
0.00214397
0.0021718
0.0022868
0.00263947
0.00298216
0.0027812
0.00258318
0.00242956
0.00231853
0.00224032
0.00221537
0.00222583
0.00229665
0.00255261
0.00315029
0.00295374
0.00275517
0.00260106
0.00248364
0.00239885
0.00234271
0.00232773
0.00235582
0.00250888
0.00334081
0.00313314
0.0029407
0.00279961
0.00269225
0.00261385
0.0025483
0.0024847
0.00248154
0.00255331
0.00353464
0.0033004
0.00313733
0.00302834
0.00295068
0.00289672
0.00284242
0.00273689
0.00267067
0.00267607
0.00369328
0.00346204
0.00335425
0.00329209
0.00325841
0.00325789
0.00322743
0.00311886
0.00295499
0.00287443
0.00418562
0.00389585
0.00366112
0.0034675
0.00320818
0.00295245
0.00285847
0.00287004
0.00301697
0.0034773
0.00366992
0.00341849
0.00320693
0.00300864
0.0027819
0.00263758
0.00262469
0.00268106
0.00295927
0.00358479
0.0034535
0.00319785
0.00295273
0.00272445
0.0025461
0.00246549
0.00247402
0.00255558
0.00285477
0.00343727
0.00324263
0.00296206
0.00273238
0.00256122
0.00244205
0.00239302
0.00240785
0.00248373
0.0027278
0.00322804
0.00315782
0.00288448
0.00268504
0.00253846
0.00243495
0.00238671
0.00239729
0.0024583
0.00263675
0.00304629
0.00322496
0.00297597
0.00279168
0.00265329
0.00255809
0.00249254
0.00248482
0.0025101
0.0026176
0.00292554
0.00341037
0.00317089
0.00299478
0.00286476
0.00277498
0.00271179
0.00266898
0.00266233
0.00270271
0.00290299
0.0036394
0.0033965
0.00323861
0.00313272
0.00306579
0.00302848
0.00297824
0.00290151
0.00288398
0.00297512
0.00389354
0.00365159
0.00352568
0.00345212
0.00342545
0.00342674
0.00339446
0.00328498
0.00314891
0.00315439
0.0041657
0.00392893
0.00383988
0.00380666
0.00383584
0.00390635
0.00390801
0.00380917
0.00354349
0.00343966
0.0052847
0.00486205
0.00457405
0.00424514
0.00390646
0.00375422
0.00375314
0.003839
0.00415364
0.00482653
0.00468845
0.00434293
0.00402845
0.00371965
0.00349256
0.00341839
0.00345149
0.00363277
0.00414469
0.00491122
0.00458034
0.00411149
0.00371045
0.00341696
0.00323483
0.00320224
0.00326879
0.00349929
0.00402982
0.00475973
0.00443435
0.00390717
0.00354267
0.00328918
0.00314204
0.00312486
0.00319733
0.00342327
0.00393382
0.0045959
0.00427783
0.00382935
0.00350546
0.00327319
0.00314018
0.00312382
0.0031886
0.00339346
0.00384756
0.00447308
0.00424016
0.00387354
0.0036028
0.00340526
0.00329319
0.00326876
0.00330409
0.00342868
0.00379461
0.00440663
0.00438706
0.0040855
0.00383942
0.00367336
0.00358546
0.00355839
0.00356684
0.00360692
0.00382224
0.00439053
0.00465757
0.00436623
0.00415745
0.00404867
0.00400674
0.00399878
0.00398647
0.00394315
0.00399675
0.00441524
0.00500379
0.00472005
0.00456838
0.00451496
0.00452202
0.00455455
0.00455618
0.00446864
0.00436408
0.00458149
0.00541112
0.00513621
0.00504026
0.00502791
0.00508604
0.00519304
0.00527274
0.00522783
0.00502843
0.00508299
0.00613505
0.00564806
0.00523546
0.00486961
0.00466859
0.00465897
0.00476133
0.00505076
0.00552262
0.00619215
0.00568093
0.00523254
0.00479219
0.00448104
0.00432877
0.0043375
0.00450929
0.00489377
0.00546665
0.00619944
0.00558581
0.00498422
0.00452688
0.00425818
0.00414067
0.00416378
0.00436223
0.0047652
0.00534548
0.00602668
0.00541032
0.00481594
0.00442565
0.00418311
0.00407832
0.00410206
0.00428918
0.00466257
0.00521307
0.00582056
0.00531261
0.00477051
0.00442036
0.00418661
0.00408613
0.00409879
0.00426864
0.00460957
0.00511512
0.00570519
0.00531789
0.00488446
0.00459431
0.00435695
0.004238
0.00422235
0.00433148
0.00459892
0.00507869
0.00566967
0.00551592
0.00518501
0.00489863
0.00465069
0.00451502
0.00448435
0.0045438
0.00471088
0.00511301
0.00571103
0.00586383
0.00556419
0.00527701
0.00504924
0.00493136
0.0049053
0.00495409
0.00503865
0.00526864
0.00579339
0.00631767
0.00600772
0.00572996
0.00553965
0.00546516
0.00546921
0.00556203
0.00565667
0.00574693
0.0060641
0.00687664
0.00651846
0.00625453
0.00611131
0.00606729
0.00611952
0.0062852
0.00647959
0.00662551
0.00679485
0.00627482
0.00577706
0.00532883
0.00503393
0.00492833
0.00497858
0.00519605
0.00556841
0.00605063
0.00664958
0.00592398
0.00540936
0.0049461
0.00469717
0.00461965
0.00468643
0.00494033
0.00533443
0.00582717
0.00642961
0.0057562
0.00512997
0.00470792
0.00449902
0.00443728
0.0045006
0.00475435
0.00515086
0.00563848
0.00621991
0.00557416
0.00499642
0.00462725
0.00442744
0.00436283
0.0044113
0.00463794
0.00500663
0.00547948
0.00601899
0.00551002
0.0049689
0.00463155
0.00442528
0.00435192
0.00438667
0.00459273
0.00493707
0.00539643
0.00593505
0.00556902
0.00511323
0.00483759
0.00457841
0.00445824
0.00444963
0.00461182
0.0049289
0.00538298
0.00592967
0.00579959
0.00544105
0.00517266
0.00486474
0.00468744
0.00465522
0.00477264
0.00503738
0.00545071
0.00600866
0.0061559
0.00586423
0.00556647
0.00523876
0.00505734
0.00502388
0.00513761
0.00535315
0.00565752
0.00613841
0.00664366
0.00634203
0.00599821
0.00569179
0.00556452
0.00555991
0.00572144
0.00595508
0.00618816
0.00650165
0.00724495
0.00686755
0.00649234
0.00624783
0.00616256
0.00619678
0.00641916
0.00672985
0.00701309
0.00721389
0.00412487
0.00399611
0.00386953
0.00379362
0.0037649
0.00375302
0.00375715
0.00383986
0.00400778
0.00422618
0.00400858
0.00382106
0.00368428
0.00363232
0.00362648
0.00361973
0.00363414
0.00372876
0.00388289
0.00409061
0.00395164
0.00371847
0.003602
0.00355206
0.00353541
0.00353386
0.00357426
0.00367082
0.00381056
0.00398116
0.00389304
0.00366947
0.00356797
0.00352066
0.0035023
0.00350329
0.00355104
0.00363469
0.00374556
0.00385809
0.00387383
0.00365544
0.00356423
0.00351855
0.00349968
0.00349981
0.00354091
0.00360329
0.00369377
0.00380421
0.00389574
0.00370094
0.00363567
0.00356631
0.00352125
0.00351466
0.00354182
0.00359686
0.00369
0.00380632
0.00399655
0.00382355
0.00378616
0.00367914
0.00357236
0.00355286
0.00356994
0.00362429
0.00371891
0.00385819
0.00419426
0.00399626
0.00398762
0.00382618
0.00365783
0.00361561
0.00363283
0.00369226
0.00378077
0.00393483
0.00444817
0.00425572
0.00420227
0.0039724
0.00378408
0.00373285
0.0037518
0.00381908
0.00390245
0.00403435
0.00472794
0.00457346
0.00433014
0.00409989
0.00393632
0.00387884
0.00387793
0.00393423
0.00403775
0.00413954
0.00254042
0.00254308
0.00254903
0.00254093
0.00246442
0.00239091
0.0023675
0.00239416
0.00243052
0.00247238
0.00251376
0.00246678
0.00243292
0.00243252
0.0023855
0.00231961
0.00231459
0.00234421
0.00238686
0.00244449
0.00250466
0.00241367
0.00236786
0.00233936
0.00229523
0.00227331
0.00227967
0.00231388
0.00235749
0.00239648
0.00247053
0.00236616
0.0023186
0.0022816
0.00225234
0.00224444
0.00225223
0.00227959
0.00231377
0.00234041
0.0024465
0.00234489
0.00230066
0.00226964
0.00225052
0.00224304
0.00224178
0.00225326
0.00227833
0.00230929
0.00243989
0.00234053
0.00230107
0.00227543
0.00226077
0.00225259
0.00224818
0.00225433
0.00228035
0.00231393
0.00246131
0.00237223
0.00234638
0.00230784
0.00228633
0.00228306
0.00228297
0.00229063
0.00231582
0.00234917
0.0025269
0.002437
0.00243235
0.00237226
0.00231957
0.00230966
0.00231789
0.00232626
0.00234539
0.00237947
0.00263576
0.00254301
0.00251709
0.00244065
0.00236986
0.00233715
0.00234219
0.00235135
0.00236924
0.00240615
0.00274664
0.00267399
0.00254883
0.00247263
0.00241429
0.0023742
0.00237787
0.00239435
0.00241263
0.00243439
0.00184987
0.0018592
0.00188007
0.00188205
0.0017887
0.00175565
0.00175933
0.00177167
0.00177782
0.00179271
0.00185059
0.00183871
0.00183516
0.00184264
0.00175271
0.00171941
0.00172231
0.00173502
0.00174993
0.00178154
0.00186709
0.0018369
0.00181534
0.00178123
0.00170666
0.00169047
0.00169665
0.00171565
0.0017399
0.00177146
0.0018578
0.0018048
0.0017724
0.00172424
0.0016813
0.00167216
0.00167855
0.00170085
0.00172915
0.00175918
0.00181671
0.00176858
0.00173612
0.00169961
0.00167879
0.00167282
0.00167348
0.00168707
0.0017096
0.00173398
0.0017996
0.00175246
0.00172174
0.00169788
0.00168514
0.00167982
0.00167905
0.00168961
0.0017084
0.00172886
0.00179983
0.0017573
0.00173659
0.00171868
0.00170898
0.00170434
0.00170334
0.00171126
0.00172928
0.00175164
0.00182149
0.0017914
0.00177704
0.00175348
0.00173889
0.00173179
0.00172896
0.00173132
0.00174373
0.00176737
0.00187113
0.00186133
0.00184017
0.00180222
0.00177012
0.00175546
0.00174987
0.00174895
0.00175367
0.00177471
0.00195807
0.00193641
0.00187286
0.00183804
0.00181373
0.00178205
0.00177844
0.00178285
0.00178593
0.00179252
0.00153804
0.00152952
0.0015303
0.00154271
0.00151288
0.00147734
0.00148078
0.00149744
0.00150381
0.0015144
0.00153462
0.00151658
0.00151624
0.00152308
0.00147801
0.00144994
0.00145094
0.00146456
0.00147717
0.00150305
0.00153693
0.00151702
0.00150907
0.00150217
0.00145105
0.00142901
0.00142991
0.001445
0.00146523
0.00149662
0.00154518
0.00152111
0.00150385
0.00148066
0.00143317
0.00141616
0.0014161
0.0014287
0.00145151
0.001483
0.00155713
0.00152137
0.00149481
0.00146101
0.00142678
0.00141636
0.0014154
0.00142274
0.00143993
0.00146566
0.00154823
0.00150864
0.00147569
0.00144652
0.00142686
0.00141938
0.00141824
0.00142586
0.00144099
0.00146341
0.00152268
0.00149196
0.00146843
0.00144873
0.00143594
0.00143067
0.0014292
0.00143444
0.00144826
0.00146989
0.00152603
0.00150683
0.00148932
0.00147572
0.00146551
0.00145204
0.00144613
0.00144699
0.00146117
0.00148675
0.00156677
0.00155525
0.00153029
0.00151039
0.00149584
0.00147497
0.00146571
0.0014662
0.00147617
0.00149684
0.00163994
0.00160715
0.00157416
0.0015513
0.00153438
0.00150529
0.00149287
0.00149644
0.00150279
0.00150992
0.0013864
0.00137491
0.00136236
0.00135585
0.00134304
0.00132791
0.00133147
0.00134772
0.00135807
0.00136964
0.00138006
0.00136126
0.00134862
0.0013448
0.00132879
0.00131324
0.0013135
0.00132451
0.00133756
0.00135758
0.00137871
0.0013559
0.00134163
0.00133688
0.0013172
0.00130163
0.00130041
0.00130864
0.00132291
0.00134488
0.00137759
0.00135534
0.0013413
0.00133205
0.00130925
0.00129546
0.00129319
0.00129754
0.00130902
0.00132583
0.00137967
0.00135833
0.00134497
0.00132938
0.00130671
0.00129691
0.00129468
0.0012966
0.00130496
0.00131807
0.00139212
0.00136843
0.00134679
0.0013255
0.00130767
0.00130011
0.00129776
0.00129968
0.00130728
0.00131901
0.00139171
0.00136619
0.00134398
0.00132523
0.00131259
0.00130695
0.0013044
0.00130442
0.00131128
0.00132435
0.0013874
0.00136814
0.00134969
0.00133795
0.00133189
0.00132324
0.00131502
0.00131368
0.00132226
0.00133931
0.00141267
0.00139388
0.00137745
0.00136686
0.00135746
0.00134079
0.00132835
0.00132765
0.00133682
0.00135189
0.00145862
0.00143468
0.00141481
0.00139632
0.00138465
0.00136625
0.00134541
0.00134625
0.0013572
0.00136533
0.00131377
0.00130288
0.00129172
0.00128158
0.00127315
0.00126749
0.00127013
0.00127841
0.00128727
0.00129705
0.00131044
0.00129661
0.00128493
0.00127526
0.00126663
0.00126002
0.00125998
0.00126546
0.00127385
0.00128637
0.00130877
0.00129367
0.00128055
0.0012706
0.00126098
0.00125361
0.00125245
0.00125634
0.00126387
0.0012757
0.00130875
0.00129297
0.00127902
0.00126834
0.00125732
0.00125028
0.0012484
0.00125019
0.00125626
0.00126506
0.00131017
0.00129401
0.00128023
0.00126877
0.00125742
0.0012513
0.00124934
0.00124978
0.00125421
0.00126073
0.0013189
0.001301
0.00128504
0.00127033
0.00125947
0.00125435
0.00125229
0.00125235
0.00125607
0.00126233
0.00132314
0.00130498
0.00128739
0.00127341
0.00126524
0.00126151
0.00125807
0.00125718
0.00126072
0.00126816
0.00132363
0.00130841
0.00129259
0.00128308
0.00127946
0.00127414
0.00126697
0.00126501
0.00126856
0.00127677
0.00134872
0.00132825
0.00131229
0.00130404
0.00129787
0.00128911
0.00127766
0.00127475
0.00127819
0.00128613
0.00136416
0.00134863
0.00133493
0.00132317
0.0013138
0.00130442
0.00128967
0.00128596
0.00129045
0.00129635
0.00130809
0.00129765
0.0012893
0.00128021
0.00127071
0.00126516
0.00126791
0.00127487
0.00128102
0.00128918
0.0013071
0.00129319
0.00128293
0.00127359
0.00126423
0.00125802
0.00125846
0.00126273
0.00126916
0.00128024
0.00130751
0.00129269
0.00128
0.00126891
0.00125875
0.0012523
0.00125143
0.00125463
0.00126129
0.00127264
0.00130885
0.00129327
0.00127825
0.00126519
0.0012548
0.00124887
0.00124731
0.00124921
0.00125475
0.00126339
0.00131161
0.00129373
0.00127731
0.00126412
0.00125431
0.00124883
0.00124698
0.00124772
0.00125176
0.00125811
0.00131486
0.00129584
0.0012785
0.00126553
0.00125671
0.00125203
0.00125009
0.00125042
0.00125418
0.00126025
0.00131853
0.00129941
0.00128372
0.00127045
0.00126341
0.00125898
0.00125638
0.00125627
0.00126009
0.00126706
0.00132743
0.00130783
0.00129248
0.0012816
0.00127592
0.00127016
0.0012653
0.00126431
0.00126717
0.00127443
0.0013455
0.00132744
0.00131221
0.00130047
0.00129204
0.00128448
0.00127597
0.00127405
0.00127568
0.00128128
0.00135422
0.00134041
0.00132755
0.00131637
0.00130586
0.00129665
0.00128688
0.00128555
0.00128755
0.00129083
0.00073661
0.000452314
0.000449807
0.000416592
0.000184003
0.000184089
0.000416873
0.000450137
0.000452679
0.000736911
0.00045246
0.000196454
0.000125679
0.000102443
6.74689e-05
6.74796e-05
0.000102487
0.000125754
0.00019658
0.000452758
0.000450054
0.000125712
6.36581e-05
5.26729e-05
4.81316e-05
4.81382e-05
5.26779e-05
6.36529e-05
0.000125761
0.000450335
0.000416786
0.000102467
5.26741e-05
4.6033e-05
4.47811e-05
4.47602e-05
4.60127e-05
5.26586e-05
0.000102499
0.000417079
0.000184033
6.74701e-05
4.81364e-05
4.47619e-05
4.38888e-05
4.38865e-05
4.47554e-05
4.8111e-05
6.74663e-05
0.000184122
0.000184094
6.74684e-05
4.81108e-05
4.47549e-05
4.38864e-05
4.38866e-05
4.47556e-05
4.81113e-05
6.74667e-05
0.000184108
0.000417033
0.000102491
5.26582e-05
4.60091e-05
4.47556e-05
4.47552e-05
4.60088e-05
5.26532e-05
0.000102474
0.000416867
0.0004503
0.000125758
6.36551e-05
5.26587e-05
4.81105e-05
4.81014e-05
5.26449e-05
6.35949e-05
0.00012569
0.000450154
0.000452808
0.000196594
0.000125759
0.000102476
6.74491e-05
6.74023e-05
0.000102422
0.000125691
0.000196498
0.000452596
0.000737145
0.00045273
0.000450242
0.000416853
0.000183992
0.000184023
0.000416876
0.000450131
0.000452586
0.000736849
0.000194535
0.000118576
0.000111906
0.000104143
6.3004e-05
6.30186e-05
0.000104194
0.000111962
0.000118638
0.000194603
0.000118594
6.5012e-05
5.09854e-05
4.64934e-05
4.0612e-05
4.06136e-05
4.65009e-05
5.09989e-05
6.50306e-05
0.000118645
0.000111945
5.09902e-05
3.95509e-05
3.72641e-05
3.63255e-05
3.63278e-05
3.72651e-05
3.95453e-05
5.09949e-05
0.000111998
0.000104175
4.6497e-05
3.72642e-05
3.56299e-05
3.51635e-05
3.51543e-05
3.56212e-05
3.72563e-05
4.64984e-05
0.000104229
6.30082e-05
4.06119e-05
3.63274e-05
3.51549e-05
3.47288e-05
3.47281e-05
3.51529e-05
3.63167e-05
4.0607e-05
6.30203e-05
6.30198e-05
4.06083e-05
3.63164e-05
3.51526e-05
3.47281e-05
3.47283e-05
3.51531e-05
3.63171e-05
4.06074e-05
6.30207e-05
0.000104221
4.64969e-05
3.72563e-05
3.56201e-05
3.51531e-05
3.51532e-05
3.56204e-05
3.72557e-05
4.64964e-05
0.000104244
0.000111995
5.09948e-05
3.95458e-05
3.72568e-05
3.6317e-05
3.63148e-05
3.72538e-05
3.95389e-05
5.09936e-05
0.000112012
0.000118659
6.50321e-05
5.09951e-05
4.64961e-05
4.06042e-05
4.05997e-05
4.64951e-05
5.0994e-05
6.50331e-05
0.00011867
0.000194636
0.00011865
0.000111993
0.000104237
6.30171e-05
6.30203e-05
0.000104241
0.000112009
0.000118669
0.000194674
6.08305e-05
4.37684e-05
4.10384e-05
3.89385e-05
3.28246e-05
3.28267e-05
3.89458e-05
4.10469e-05
4.37788e-05
6.08438e-05
4.37708e-05
3.3474e-05
3.06916e-05
2.97287e-05
2.88142e-05
2.88145e-05
2.97299e-05
3.0694e-05
3.34768e-05
4.37809e-05
4.10436e-05
3.06922e-05
2.85645e-05
2.79841e-05
2.77394e-05
2.774e-05
2.79843e-05
2.85639e-05
3.06937e-05
4.10535e-05
3.89426e-05
2.97292e-05
2.79841e-05
2.74809e-05
2.72854e-05
2.72836e-05
2.74794e-05
2.7983e-05
2.97299e-05
3.8952e-05
3.28251e-05
2.88143e-05
2.77399e-05
2.72838e-05
2.70866e-05
2.70865e-05
2.72834e-05
2.77381e-05
2.8814e-05
3.2828e-05
3.28271e-05
2.8814e-05
2.77378e-05
2.72833e-05
2.70865e-05
2.70866e-05
2.72836e-05
2.77383e-05
2.88143e-05
3.28284e-05
3.89506e-05
2.97295e-05
2.7983e-05
2.74793e-05
2.72836e-05
2.72838e-05
2.74798e-05
2.79839e-05
2.9731e-05