/*--------------------------------*- C++ -*----------------------------------*\
  =========                 |
  \\      /  F ield         | OpenFOAM: The Open Source CFD Toolbox
   \\    /   O peration     | Website:  https://openfoam.org
    \\  /    A nd           | Version:  9
     \\/     M anipulation  |
\*---------------------------------------------------------------------------*/
FoamFile
{
    format      ascii;
    class       volScalarField;
    location    "1";
    object      f16.gas;
}
// * * * * * * * * * * * * * * * * * * * * * * * * * * * * * * * * * * * * * //

dimensions      [0 0 0 0 0 0 0];

internalField   nonuniform List<scalar> 
137980
(
0.00652481
0.00706109
0.00638635
0.00610029
0.00608967
0.00613474
0.00644166
0.00676269
0.00703316
0.00706372
0.00682155
0.00727374
0.00679102
0.00637205
0.0063702
0.0061453
0.0062945
0.0067086
0.00721008
0.00741075
0.00639458
0.00640276
0.00713453
0.00710817
0.00716317
0.0071489
0.00696437
0.00708955
0.00716018
0.00711794
0.00637052
0.00603856
0.00631196
0.00671441
0.00685112
0.00738819
0.00713645
0.0067324
0.00604755
0.00585373
0.00589515
0.0057041
0.00594307
0.006216
0.00641578
0.00691031
0.00711543
0.00697946
0.0059992
0.00562684
0.0056623
0.00565556
0.00572055
0.00595782
0.00629581
0.00656678
0.00691849
0.00695921
0.00594171
0.00585464
0.0056175
0.00580832
0.00613194
0.0061928
0.0063118
0.00661388
0.00702387
0.00688571
0.00596598
0.00624798
0.00584965
0.00632039
0.00633068
0.00617666
0.00621414
0.00644757
0.00766887
0.00745704
0.00604404
0.00613281
0.0058897
0.00622965
0.00613871
0.00584222
0.00574915
0.00595554
0.00613823
0.00779593
0.00696585
0.006053
0.00606929
0.0062577
0.00600398
0.00573277
0.00563518
0.00585558
0.00564613
0.00610118
0.00684258
0.00616109
0.00455636
0.00527465
0.00521481
0.00506287
0.00503498
0.00502266
0.00503571
0.00511996
0.0050593
0.00474029
0.00530039
0.00539134
0.00550283
0.00541784
0.00530517
0.00533729
0.00549114
0.00552022
0.00528636
0.00506156
0.00506592
0.00518378
0.00553956
0.00564572
0.00551205
0.0055685
0.00571499
0.00575533
0.00567172
0.00556256
0.00501384
0.00509878
0.0052914
0.00546922
0.00535008
0.00552071
0.00556674
0.00556952
0.00545009
0.00521921
0.00486811
0.00497008
0.00522478
0.0053183
0.00520305
0.00530005
0.0053293
0.00524361
0.0050693
0.00488497
0.00474932
0.00489435
0.00512415
0.00525893
0.00523435
0.0051269
0.00511182
0.00509452
0.00491495
0.00479943
0.00481797
0.00507276
0.00531852
0.00527222
0.00529649
0.00523952
0.00511352
0.00502515
0.00484196
0.00484456
0.00515904
0.00527379
0.00527499
0.00525768
0.00533532
0.00525182
0.00532623
0.00528452
0.00502576
0.00486155
0.0051503
0.00519539
0.00511624
0.00507387
0.00519203
0.00525151
0.00497577
0.00516649
0.00514682
0.00494616
0.0048372
0.00476535
0.00471122
0.00479515
0.00498015
0.00516191
0.00490295
0.00500435
0.00499242
0.00486623
0.00404163
0.00406011
0.00419933
0.00421706
0.00417523
0.00412671
0.00411383
0.00412643
0.00415804
0.0042025
0.0041389
0.00433476
0.00436562
0.00436332
0.00432687
0.00427281
0.00426086
0.00425187
0.00423235
0.00423885
0.00440564
0.00441973
0.00441281
0.00439584
0.00435083
0.00429633
0.00427465
0.00424356
0.00422925
0.00424655
0.00442196
0.00443583
0.00442024
0.00439351
0.0043075
0.00427278
0.00422123
0.00420039
0.00423478
0.0042449
0.00449172
0.00441639
0.00434755
0.00432618
0.00431451
0.00426629
0.00421957
0.00421219
0.00424958
0.00427239
0.00433311
0.00436569
0.00439634
0.00440112
0.00435321
0.00428454
0.00426636
0.00428958
0.00434621
0.00431141
0.00434923
0.00444465
0.00448317
0.00441617
0.00432953
0.0043146
0.00434962
0.00439853
0.00438954
0.00437378
0.00446373
0.00456212
0.00447355
0.00429466
0.0042883
0.00433272
0.00441683
0.00441421
0.00435922
0.0043545
0.00451892
0.00444648
0.00417719
0.0042442
0.00427134
0.00439711
0.00440703
0.00436881
0.0041829
0.00419909
0.00418269
0.00402802
0.00409654
0.00414126
0.00419912
0.00438049
0.00433655
0.00414321
0.00392501
0.00391973
0.00377561
0.00380209
0.00388139
0.00399026
0.0040547
0.00404531
0.00401995
0.00412112
0.00415717
0.00412287
0.003827
0.00383675
0.00388842
0.00394463
0.00393746
0.00401666
0.004126
0.00420963
0.0041949
0.00416837
0.0038337
0.00382346
0.00384361
0.00386481
0.0041551
0.00427193
0.00427034
0.00424876
0.00420418
0.00417337
0.00386266
0.00385055
0.00391884
0.00426401
0.00432897
0.00431741
0.00428468
0.00421438
0.0041595
0.00415501
0.00407431
0.00411869
0.00427788
0.00436804
0.00435378
0.00431003
0.00420677
0.00411518
0.00409513
0.00409905
0.0042437
0.00430088
0.00442264
0.00440302
0.00433794
0.00419063
0.00409102
0.00407447
0.00407955
0.00408359
0.00445504
0.00452594
0.00450167
0.0043855
0.00415407
0.00406653
0.00405485
0.00406854
0.00407804
0.00404766
0.00463355
0.00460665
0.00441627
0.0040958
0.00405089
0.00404083
0.00405741
0.0041057
0.00406433
0.00388374
0.00465432
0.0044373
0.00400654
0.00402212
0.0040526
0.00407599
0.00414711
0.00414414
0.00396513
0.00383671
0.00439666
0.00378531
0.00396927
0.00408074
0.00411941
0.00413883
0.00421854
0.00404046
0.00399396
0.00390237
0.00381842
0.00372981
0.0036241
0.00363915
0.00369815
0.00380362
0.00393447
0.00399592
0.00399251
0.0039829
0.00396564
0.00389249
0.00384245
0.00387142
0.00390581
0.00399274
0.00404687
0.00402672
0.0039851
0.00397484
0.00403256
0.0039098
0.00387391
0.00387286
0.00404471
0.00409208
0.00407648
0.00401702
0.00392575
0.00391749
0.00411211
0.00386389
0.00389675
0.00403664
0.00411167
0.00410207
0.0040576
0.00394209
0.00388797
0.00388855
0.00430812
0.00402374
0.00399869
0.00407917
0.00413197
0.00410836
0.00401893
0.00391425
0.00388705
0.00389219
0.00440525
0.00419302
0.00420538
0.00422774
0.00418781
0.00410172
0.00395273
0.00390072
0.00391551
0.0039036
0.00458004
0.00446737
0.0044095
0.00427105
0.00408734
0.00394298
0.00389321
0.0039125
0.00394024
0.00387655
0.00461102
0.004548
0.0043159
0.00389374
0.00389137
0.00387564
0.00388143
0.00397517
0.0039471
0.00377852
0.00456184
0.00419142
0.00362052
0.00373033
0.00388334
0.00388719
0.00400455
0.00399546
0.00392817
0.00373133
0.00442705
0.00323067
0.00343058
0.00384048
0.00399366
0.00402731
0.0040333
0.00400096
0.003889
0.00370708
0.0026585
0.00270752
0.00279878
0.00305297
0.00351986
0.00377242
0.00388012
0.00391888
0.00390343
0.0038668
0.00268504
0.00278689
0.00308155
0.00354661
0.00378662
0.00389471
0.00393621
0.00393213
0.00390572
0.00384548
0.00277225
0.00291433
0.00333802
0.00369588
0.0038544
0.00393845
0.00394936
0.0039344
0.00389173
0.00379863
0.00289279
0.00311229
0.00349802
0.00376487
0.0039114
0.00395287
0.00395298
0.0039409
0.00389785
0.00379876
0.00330518
0.0035797
0.00380797
0.00395818
0.00402487
0.00403102
0.00401726
0.00398149
0.00390709
0.00378532
0.00424965
0.00424961
0.00423492
0.00421268
0.00418372
0.00411355
0.00404525
0.0039889
0.00385711
0.00369375
0.00442828
0.00438252
0.00432601
0.00427327
0.00421155
0.00411385
0.0040422
0.00391326
0.003681
0.00349638
0.00433999
0.00430533
0.00423222
0.00415099
0.00402364
0.00391164
0.00380289
0.0035632
0.00340368
0.00331803
0.00404609
0.00399381
0.00385279
0.00366106
0.00357888
0.00347753
0.00334568
0.00328276
0.00325605
0.00325656
0.003274
0.00295572
0.00292029
0.00300754
0.00315744
0.00312815
0.00311619
0.00315847
0.00320517
0.00324051
0.0027201
0.00272556
0.00269719
0.00257967
0.00258511
0.00278517
0.00340679
0.00373989
0.00375263
0.00373579
0.00255168
0.00263887
0.00262549
0.00255355
0.00258037
0.00282688
0.00338952
0.00367509
0.00371449
0.00371147
0.00225669
0.00238939
0.00241011
0.00244197
0.00256953
0.00295653
0.00338742
0.00360493
0.00362726
0.00360333
0.00224224
0.00227305
0.00231173
0.00239318
0.00261346
0.00296045
0.00322941
0.00340099
0.00345189
0.00345026
0.0022729
0.00226809
0.00229231
0.00235615
0.00250927
0.00278117
0.0030507
0.00323031
0.00330628
0.00333681
0.00257958
0.00253173
0.0025543
0.0026301
0.00281844
0.00303909
0.00318369
0.00325896
0.00329503
0.00331163
0.00333872
0.00321613
0.003195
0.00322384
0.00329244
0.00333247
0.00333356
0.00333018
0.0033162
0.0033063
0.00363846
0.00355765
0.00351496
0.00350248
0.00346923
0.00344164
0.00338352
0.00335115
0.00327084
0.00324328
0.00365139
0.00361181
0.00357144
0.0035043
0.00339952
0.00331329
0.00320583
0.00315097
0.00304639
0.00303214
0.00351103
0.00346087
0.00324936
0.00297558
0.00282967
0.00279694
0.00282153
0.00278523
0.00270931
0.00268058
0.00223843
0.0020487
0.00187975
0.00189267
0.00201712
0.00253324
0.00309117
0.00319478
0.00317054
0.00326748
0.00217621
0.00210296
0.00195337
0.00192743
0.00196798
0.00230048
0.00295151
0.00314844
0.0030643
0.00312914
0.00202034
0.00207223
0.00202456
0.0019371
0.00195484
0.00222628
0.00283167
0.00300705
0.002992
0.00288926
0.0019286
0.00199094
0.00197075
0.00190074
0.00192305
0.00220822
0.00268286
0.00277154
0.00271903
0.00258653
0.0017565
0.00178813
0.00179256
0.00179676
0.00187746
0.00222309
0.00247678
0.00247264
0.00242302
0.00248002
0.00188912
0.00175029
0.00174387
0.00176462
0.00185267
0.0020844
0.00218484
0.00221496
0.00232521
0.00250268
0.00230152
0.00193082
0.00180964
0.00180778
0.00184091
0.00190315
0.00201097
0.00212327
0.00236004
0.00252696
0.00275845
0.00245649
0.00216811
0.00200092
0.00196498
0.00197955
0.00202369
0.00212835
0.00240706
0.00253249
0.00295197
0.00280758
0.00264744
0.00249245
0.00237419
0.00229117
0.00229688
0.00234347
0.00248279
0.00252775
0.00301107
0.00294425
0.00287182
0.00278101
0.00270433
0.00261998
0.00254565
0.00254221
0.00255387
0.00254285
0.00169351
0.00159907
0.00151903
0.00150026
0.00158036
0.00169713
0.00178314
0.00184525
0.00212208
0.00231428
0.00176821
0.00168478
0.00153061
0.00148955
0.0015514
0.0016349
0.00167941
0.00166743
0.00172184
0.00191919
0.00175599
0.00169886
0.00154644
0.0014883
0.00154019
0.00159415
0.00161066
0.00158171
0.00160896
0.00172479
0.00171173
0.00163892
0.00150264
0.00148206
0.00151032
0.00152052
0.00149936
0.00149108
0.00156405
0.00165865
0.00161058
0.00153231
0.00148922
0.00148231
0.00148177
0.00146273
0.00145433
0.00147169
0.00157984
0.00168552
0.00164937
0.00156133
0.0015275
0.00151
0.00148516
0.00146067
0.00145765
0.00152316
0.00167873
0.00182649
0.0018944
0.00173564
0.00166821
0.00161934
0.0015788
0.00153374
0.00152183
0.00160772
0.00178556
0.00197442
0.00232499
0.00208189
0.00187119
0.00176097
0.00170818
0.00163389
0.00159596
0.00170258
0.00189149
0.0020475
0.00253296
0.00238137
0.00219564
0.00199472
0.00186019
0.00175463
0.00165541
0.00180706
0.0019547
0.00209894
0.00265982
0.00255528
0.00244612
0.00227342
0.00205294
0.00185543
0.00175266
0.00188
0.00196096
0.00203932
0.00187716
0.00159281
0.00147926
0.00135263
0.00132271
0.00132712
0.0012997
0.00127197
0.00129434
0.00136602
0.00183987
0.00161705
0.00143226
0.00132129
0.00131344
0.00131677
0.0012895
0.00125166
0.00127231
0.00134077
0.00174762
0.00163806
0.00144777
0.00135854
0.00132632
0.00131248
0.00127068
0.00124169
0.00126214
0.00133041
0.00160658
0.00156035
0.00144335
0.0013811
0.0013373
0.00130603
0.00125792
0.00124098
0.00126714
0.00133858
0.00162274
0.00154037
0.00145924
0.0014072
0.00135403
0.00131018
0.00126473
0.00126202
0.00128986
0.0013674
0.0020042
0.00174291
0.00159045
0.00149698
0.0014262
0.0013686
0.00130685
0.00129577
0.00131948
0.00141464
0.00234835
0.00217671
0.00197875
0.00179528
0.00164979
0.00153111
0.00140595
0.00134979
0.00136373
0.00147818
0.00248287
0.0023804
0.0022551
0.00208808
0.00191515
0.00175939
0.00157263
0.00143583
0.00142554
0.00154107
0.002643
0.00253615
0.00244562
0.00234021
0.00216918
0.00202788
0.00181586
0.00156585
0.00148172
0.00157295
0.00264188
0.00254247
0.0024357
0.00236027
0.00222967
0.00211381
0.00198979
0.00173504
0.00156484
0.00158425
0.00190518
0.00178862
0.00158609
0.00136351
0.00123022
0.00117969
0.00117066
0.0011759
0.00120143
0.00125372
0.00172358
0.00156237
0.00134695
0.00121961
0.00116135
0.00113817
0.00113818
0.00114958
0.00118073
0.00125099
0.00150564
0.00136683
0.00124842
0.00117929
0.00114467
0.00113014
0.00113247
0.00114816
0.00118423
0.00126036
0.00146735
0.00134231
0.00125297
0.00120945
0.00118306
0.00116396
0.00116613
0.00118438
0.00121774
0.00129102
0.00171368
0.00152613
0.00141544
0.00134806
0.00130126
0.00125803
0.00124623
0.00125273
0.00127238
0.00132466
0.00205925
0.00183455
0.00166728
0.00155075
0.00146724
0.00139934
0.00134885
0.00133246
0.00133858
0.00136874
0.00235213
0.00213858
0.00193261
0.00176577
0.00164241
0.00154883
0.00147589
0.00142434
0.00141666
0.00143991
0.00247714
0.00228714
0.00210138
0.001933
0.00176814
0.00163544
0.00155009
0.00149325
0.00147988
0.00151765
0.00241398
0.00224292
0.00207106
0.00191557
0.00176634
0.00164315
0.00156992
0.00152428
0.00152791
0.00160851
0.00217749
0.00204965
0.00193425
0.00183119
0.00173225
0.00165315
0.00159989
0.00156068
0.0015771
0.00170324
0.00186073
0.00170854
0.00151955
0.00136515
0.00126956
0.00120548
0.00117496
0.00117382
0.00119172
0.00123531
0.00155971
0.00143785
0.00130834
0.00121228
0.00115305
0.00110926
0.00109702
0.00110412
0.00113357
0.00121186
0.00143454
0.00130915
0.0012191
0.00115888
0.00111889
0.00108618
0.0010758
0.00108346
0.00111799
0.0012176
0.0014167
0.0013026
0.00122001
0.00116821
0.00113633
0.00110066
0.00107588
0.00108166
0.0011212
0.00124905
0.00152002
0.00139428
0.00130824
0.00124998
0.00120459
0.00115412
0.00110996
0.00110638
0.00114542
0.00128873
0.0016633
0.00153244
0.00142705
0.00133991
0.00127267
0.00121305
0.00116549
0.00114959
0.00117314
0.00130147
0.00178866
0.00163404
0.00152583
0.00143511
0.00135334
0.0012876
0.0012346
0.00121032
0.00122144
0.00131743
0.00183107
0.00167873
0.00160011
0.00152333
0.00144268
0.00137844
0.00132403
0.00129338
0.00129869
0.00137722
0.00181651
0.00172747
0.00167903
0.00160984
0.00154457
0.00149721
0.00144248
0.00139951
0.00140605
0.00151784
0.00182961
0.00183439
0.00177921
0.00172696
0.0016968
0.00167826
0.00162762
0.00153245
0.0015249
0.00159005
0.00204465
0.00197181
0.00180758
0.00170163
0.00158885
0.00147881
0.00138684
0.00133514
0.00133246
0.00137905
0.00165519
0.00162378
0.00153646
0.00144471
0.00133845
0.00123882
0.00118598
0.00118164
0.00121728
0.00136875
0.00149364
0.00139075
0.00130577
0.00122315
0.00114554
0.00109555
0.00108836
0.00110243
0.00117065
0.00139086
0.00146249
0.00133325
0.00122567
0.00114699
0.00108906
0.00105765
0.00105798
0.00107582
0.0011513
0.00140442
0.0015079
0.00137203
0.00125148
0.00116413
0.00110251
0.00106495
0.0010612
0.00107466
0.00114225
0.00137407
0.00162166
0.00149172
0.00136075
0.00126026
0.00118732
0.00113448
0.00111217
0.00111386
0.00115119
0.00131385
0.00174558
0.00161783
0.00148414
0.00138185
0.00130345
0.00124473
0.00120267
0.00117915
0.00119023
0.00128198
0.00188518
0.0017459
0.00161477
0.00152083
0.00144859
0.00139351
0.0013442
0.00128614
0.00126877
0.00130849
0.00202419
0.00186094
0.00175046
0.00167902
0.0016276
0.00158962
0.00154744
0.00146004
0.001391
0.00138417
0.0021336
0.00196788
0.00189857
0.00186088
0.00184132
0.00184227
0.00181652
0.00172734
0.00158383
0.00151351
0.00240951
0.00220575
0.00204275
0.0019095
0.00172124
0.001533
0.00145702
0.00145939
0.00155093
0.00186832
0.00202954
0.00186415
0.00172549
0.00159272
0.00143441
0.0013323
0.00131592
0.00134752
0.0015283
0.00196495
0.00187803
0.00171512
0.00155564
0.00140484
0.00128662
0.00123022
0.00123195
0.00127685
0.00146843
0.00187473
0.00173299
0.00155373
0.00140865
0.00130147
0.00122551
0.00119134
0.00119778
0.00123932
0.00139017
0.00172842
0.00167684
0.0015039
0.00138079
0.00129066
0.00122593
0.00119316
0.00119651
0.00122809
0.00133443
0.00160082
0.00172804
0.00157227
0.00145953
0.00137506
0.0013161
0.00127231
0.00126004
0.00126913
0.00132631
0.00151604
0.00186316
0.00171313
0.00160491
0.0015252
0.0014692
0.00142617
0.00139251
0.00137016
0.00138569
0.00150426
0.00203092
0.00187531
0.00177835
0.00171437
0.00167334
0.00164797
0.00160732
0.00153741
0.00150149
0.00155133
0.0022177
0.00205758
0.00198168
0.00193912
0.00192568
0.00192618
0.00189691
0.00180294
0.0016765
0.00166684
0.0024141
0.00225317
0.00220094
0.00218604
0.00221205
0.00226412
0.0022581
0.00217032
0.00194498
0.00185358
0.00307711
0.00277198
0.00257361
0.00233769
0.00208854
0.00197507
0.00196671
0.00201876
0.0022355
0.0027172
0.00263057
0.00239981
0.00218803
0.0019741
0.0018172
0.00176351
0.00178112
0.00189808
0.00225052
0.00280795
0.00256802
0.00224786
0.00197527
0.00178083
0.001661
0.00163761
0.00167729
0.00182508
0.00219088
0.00271506
0.0024739
0.00211065
0.00186971
0.00170649
0.00161037
0.00159744
0.00164239
0.00178691
0.00213449
0.00260363
0.00236009
0.00205959
0.00184968
0.00170236
0.00161917
0.00160813
0.00164567
0.00177345
0.00207938
0.00252082
0.00233126
0.002093
0.00192353
0.00180201
0.00173339
0.00171597
0.00173305
0.00180296
0.00204238
0.00247437
0.00243725
0.00224925
0.00209546
0.00199444
0.00194208
0.00192235
0.00191864
0.00192754
0.00205866
0.00245531
0.00263818
0.00245527
0.00232568
0.00226394
0.0022426
0.00223617
0.00221592
0.00215676
0.00217597
0.00246003
0.00289892
0.00271516
0.00262525
0.00260088
0.00261267
0.00263525
0.0026253
0.00253446
0.00242162
0.00256348
0.00320724
0.00302115
0.00296786
0.0029701
0.00301982
0.00309897
0.00314919
0.0030917
0.0028988
0.00291351
0.00360129
0.00324982
0.00295483
0.00269082
0.00254803
0.00253842
0.00260405
0.00280138
0.00313746
0.00362662
0.0032708
0.00295825
0.00264686
0.00243228
0.00232831
0.00233415
0.00245031
0.00271836
0.00313025
0.00366821
0.00322613
0.00279428
0.00247473
0.00229427
0.00221667
0.00223298
0.00236944
0.00264977
0.00306681
0.00356522
0.00310809
0.00268059
0.00241383
0.00225154
0.00218369
0.0022017
0.00233367
0.00259456
0.00298889
0.00342753
0.00303275
0.00265017
0.00241473
0.00226292
0.00220019
0.00221065
0.00232658
0.00256529
0.00292727
0.00335289
0.00302742
0.00272949
0.00254276
0.00238866
0.00231286
0.00230305
0.00237516
0.00255866
0.00290206
0.00332984
0.00315975
0.00294528
0.00276117
0.00259914
0.00251166
0.00249165
0.00252642
0.00263288
0.00291704
0.00335287
0.00340915
0.00322072
0.00303403
0.00288654
0.00281272
0.00279719
0.00282473
0.00286657
0.00301458
0.00339249
0.00374586
0.00354847
0.00336553
0.00324542
0.00320337
0.0032127
0.00327665
0.00332767
0.00336577
0.00357451
0.00417392
0.00392872
0.00375302
0.00366681
0.00364642
0.00369512
0.00381978
0.00395296
0.00403838
0.00413211
0.00367122
0.00331716
0.00299432
0.00278855
0.00271992
0.00275551
0.00290448
0.00316295
0.00350492
0.00393696
0.00343329
0.00306504
0.00273794
0.00257099
0.00252151
0.00256887
0.00274489
0.00301947
0.00336958
0.00380623
0.00333233
0.00287746
0.0025872
0.00245082
0.00241317
0.00245867
0.00263398
0.00291121
0.00325786
0.00367802
0.00320607
0.00279082
0.00253968
0.00241144
0.00237345
0.00240936
0.0025684
0.00282842
0.00316529
0.00355201
0.00315905
0.00277397
0.00254957
0.00241684
0.00237129
0.00239807
0.00254398
0.00278854
0.00311655
0.00350254
0.00319126
0.00287543
0.00270031
0.00252932
0.00245102
0.00244581
0.00255922
0.00278341
0.00310836
0.00350357
0.00334521
0.00310717
0.00293852
0.00273225
0.00261284
0.00259134
0.00267064
0.00285373
0.00314655
0.00355169
0.00359218
0.00340992
0.00321875
0.00299735
0.00287738
0.00285691
0.00293504
0.00307911
0.00328407
0.00362656
0.00394318
0.00375812
0.00352891
0.0033238
0.00324617
0.00325124
0.0033711
0.00353285
0.0036827
0.00388715
0.00439485
0.00414629
0.00388816
0.00373116
0.00368375
0.00372729
0.00389728
0.00412493
0.00432339
0.00443685
0.00231801
0.00223231
0.00214438
0.00209356
0.00207718
0.00207079
0.00207087
0.00212199
0.00223293
0.00237813
0.00224617
0.00211335
0.00201943
0.0019871
0.00198673
0.00198376
0.00199172
0.00205413
0.00215585
0.00229309
0.00221412
0.00204497
0.00196672
0.00193559
0.00192634
0.00192698
0.00195628
0.00202342
0.00211722
0.00222934
0.00217304
0.0020136
0.00194671
0.0019167
0.00190579
0.00190864
0.00194544
0.00200636
0.00208323
0.00215355
0.00215816
0.00200487
0.00194619
0.00191746
0.00190567
0.00190806
0.00194144
0.00198833
0.00205123
0.00212164
0.00216821
0.00203744
0.00200103
0.00195541
0.00192353
0.00191971
0.00194288
0.00198417
0.00204949
0.00212582
0.00223216
0.00212095
0.00211013
0.00204037
0.00196155
0.00194762
0.00196135
0.0020013
0.00206708
0.00216094
0.00236478
0.00223435
0.0022514
0.00214486
0.00202264
0.00199241
0.00200544
0.00204822
0.00210652
0.0022091
0.00253557
0.00241214
0.00240063
0.00224206
0.00210996
0.00207575
0.00209153
0.00213914
0.00219141
0.00227279
0.00272309
0.00263333
0.00246991
0.00231596
0.00220855
0.00217139
0.0021694
0.00220273
0.00226615
0.00233154
0.00131178
0.00131709
0.00132396
0.00132035
0.00126844
0.00121708
0.00120018
0.00121708
0.00123769
0.00126028
0.00129639
0.00126702
0.00124653
0.00124865
0.00121809
0.00117265
0.00116877
0.00118765
0.00121351
0.00124556
0.00129131
0.00123198
0.00120453
0.00118817
0.00115951
0.00114455
0.00114823
0.00117028
0.00119688
0.00121734
0.00126805
0.0012009
0.00117246
0.00115023
0.00113153
0.00112638
0.00113093
0.00114807
0.00116845
0.00118259
0.00125077
0.00118698
0.00116111
0.00114269
0.00113082
0.00112586
0.00112442
0.00113035
0.00114438
0.00116251
0.00124516
0.00118376
0.00116144
0.00114681
0.00113774
0.00113242
0.00112889
0.00113121
0.00114612
0.00116648
0.00125696
0.00120385
0.00119177
0.00116837
0.00115423
0.00115218
0.00115187
0.00115581
0.00117068
0.00119071
0.00129805
0.0012434
0.00124764
0.00121087
0.00117473
0.00116802
0.00117386
0.00117926
0.00119077
0.00120964
0.0013675
0.00130934
0.00129729
0.00124981
0.00120508
0.00118302
0.00118742
0.00119432
0.001205
0.00122475
0.00143667
0.00139287
0.00131309
0.00126445
0.00122948
0.00120409
0.00120749
0.00121762
0.00122816
0.00124036
0.000892021
0.000900412
0.000915834
0.000917832
0.000854274
0.000832928
0.000836321
0.000844564
0.000847851
0.000855538
0.000894027
0.000888466
0.000887734
0.000893992
0.000833504
0.000812078
0.000814689
0.000823196
0.000831789
0.000850231
0.000905197
0.000888031
0.000876269
0.000855043
0.000805626
0.000795503
0.000799896
0.00081212
0.000826504
0.000843718
0.000898635
0.00086652
0.000848533
0.000817987
0.000790361
0.00078478
0.000788907
0.000802961
0.000819795
0.000836617
0.00086989
0.000842184
0.000824179
0.00080187
0.000789171
0.000785582
0.000785716
0.000793569
0.000806441
0.000820331
0.000858719
0.000831231
0.000814231
0.000800447
0.000793089
0.000789899
0.000789228
0.000795075
0.000805525
0.000816812
0.000858433
0.000834489
0.000823456
0.000813253
0.000807913
0.000805305
0.000804697
0.000809253
0.000819724
0.000832392
0.000872035
0.000856348
0.000849435
0.000834465
0.000825698
0.000821739
0.000820275
0.000821901
0.000828999
0.000842209
0.000902915
0.000900814
0.000888603
0.00086465
0.000843524
0.000834486
0.000831768
0.000831616
0.00083453
0.000846326
0.000958074
0.000946497
0.00090596
0.000883907
0.00086976
0.000849224
0.000847809
0.000851282
0.000853328
0.000856437
0.000708604
0.000704254
0.000705137
0.000714107
0.000694852
0.000672152
0.000675426
0.000686375
0.0006901
0.000695508
0.000707268
0.000697427
0.000698472
0.00070408
0.00067473
0.000657081
0.000658459
0.00066767
0.000675008
0.000689696
0.000708528
0.000698013
0.000695067
0.000692264
0.000659244
0.00064549
0.000646473
0.000656309
0.000668254
0.000685942
0.000713189
0.00070085
0.000692439
0.000679362
0.000648891
0.000638293
0.000638297
0.000646
0.000659413
0.000677386
0.000720778
0.000701188
0.000686964
0.000666773
0.000645137
0.000638707
0.000638068
0.000642061
0.000651571
0.00066573
0.000714653
0.0006928
0.000674174
0.000656617
0.000644847
0.000640476
0.000639709
0.000643905
0.000652116
0.000664179
0.000698103
0.000681334
0.000668494
0.000657165
0.000649857
0.000646961
0.000646147
0.000649074
0.000656741
0.000668525
0.000700147
0.000690516
0.000680971
0.000673159
0.000667366
0.000659312
0.000655896
0.000656478
0.000665028
0.000679693
0.000725625
0.000721139
0.000706123
0.000693866
0.000684649
0.000671797
0.000666542
0.00066757
0.000673892
0.000685646
0.00077154
0.000751445
0.000730986
0.000717352
0.000707225
0.000688597
0.000681515
0.00068485
0.000689072
0.000692592
0.000622828
0.000616554
0.000609206
0.000605694
0.000597915
0.000588619
0.000591303
0.000601771
0.000607719
0.000613691
0.000619437
0.000608819
0.000601545
0.000599867
0.000590132
0.000580645
0.000581184
0.0005884
0.000596131
0.000607479
0.000618598
0.000605511
0.000597615
0.000595693
0.000583724
0.000574233
0.0005737
0.000578986
0.000587522
0.000600174
0.000617194
0.0006049
0.00059765
0.000593222
0.000579266
0.000570888
0.000569598
0.000572131
0.000578744
0.000588176
0.000618102
0.000606668
0.00060023
0.00059165
0.000577793
0.000571969
0.000570676
0.000571592
0.000576131
0.00058321
0.000625486
0.000612924
0.000601069
0.000588842
0.000578156
0.000573788
0.000572456
0.000573409
0.000577498
0.000583759
0.000624961
0.000611032
0.000598602
0.00058771
0.000580628
0.000577583
0.000576169
0.00057605
0.000579801
0.000587052
0.000621627
0.000611606
0.000601282
0.000594954
0.000591855
0.000586995
0.000582083
0.000581287
0.000586489
0.000596446
0.000636863
0.000626963
0.000617723
0.000612029
0.000606856
0.000596634
0.000589318
0.000589174
0.000595079
0.000603778
0.000665456
0.000651576
0.00063995
0.000629143
0.000622616
0.000611407
0.000598561
0.000599649
0.000606718
0.000610946
0.00058175
0.000575695
0.000569374
0.000563518
0.000558541
0.000555209
0.00055703
0.000562142
0.000567229
0.000572562
0.000579989
0.000572157
0.000565521
0.000559979
0.000554992
0.000551145
0.000551298
0.000554696
0.000559564
0.000566725
0.000578859
0.000570296
0.000562866
0.000557353
0.000551852
0.000547597
0.000547033
0.000549435
0.000553791
0.000560583
0.000578361
0.000569563
0.000561896
0.000556105
0.000549767
0.000545762
0.000544754
0.000545784
0.000549217
0.000554114
0.000578889
0.000570014
0.000562577
0.000556351
0.000549816
0.000546427
0.000545387
0.000545574
0.000547974
0.00055146
0.000583869
0.000574085
0.000565345
0.000557026
0.000550873
0.000548133
0.000547064
0.000547058
0.000549056
0.000552447
0.000585988
0.000576072
0.00056625
0.000558359
0.000554019
0.000552206
0.000550288
0.000549749
0.000551731
0.000555973
0.000585479
0.000577476
0.000568604
0.00056378
0.000562306
0.00055953
0.000555246
0.000554106
0.000556253
0.000561038
0.000600985
0.000589154
0.000580137
0.000576057
0.000573091
0.000568091
0.000561122
0.000559491
0.000561697
0.000566321
0.00060997
0.000601235
0.000593588
0.000587115
0.000582079
0.000576784
0.00056779
0.000565719
0.000568633
0.000571935
0.00057805
0.000572335
0.000567801
0.000562618
0.000556968
0.000553688
0.000555547
0.000559817
0.000563129
0.000567464
0.000577763
0.000569859
0.000564169
0.0005589
0.000553454
0.000549848
0.000550286
0.000552891
0.000556484
0.0005627
0.000577916
0.00056953
0.000562473
0.000556268
0.000550418
0.00054675
0.000546366
0.000548309
0.000552094
0.000558573
0.000578369
0.000569731
0.000561389
0.000554056
0.000548139
0.00054485
0.000544048
0.000545142
0.000548228
0.000553008
0.000579573
0.000569733
0.000560608
0.000553287
0.000547806
0.000544839
0.000543873
0.000544252
0.000546397
0.000549766
0.000581013
0.000570476
0.000561062
0.000553894
0.000549057
0.000546627
0.000545653
0.000545818
0.000547847
0.000551095
0.000582961
0.000572269
0.000563344
0.000556409
0.000552758
0.000550552
0.000549209
0.000549163
0.000551327
0.000555236
0.000588169
0.000577001
0.000568218
0.000562439
0.000559711
0.000556867
0.000554153
0.000553653
0.000555334
0.000559494
0.000599171
0.000589098
0.000580258
0.000573784
0.000569221
0.000564905
0.000559993
0.000559028
0.000560031
0.000563132
0.000603427
0.000595908
0.000589285
0.000583125
0.000577242
0.000571778
0.00056596
0.000565441
0.000566719
0.000568334
0.000718403
0.00043737
0.00043476
0.000389274
0.000146652
0.000146734
0.000389561
0.000435139
0.000437803
0.000718796
0.000437542
0.000168001
9.62587e-05
7.23163e-05
3.53529e-05
3.53642e-05
7.23612e-05
9.63407e-05
0.00016816
0.000437974
0.000435033
9.62962e-05
3.27605e-05
2.23977e-05
1.80062e-05
1.80091e-05
2.2403e-05
3.27726e-05
9.6386e-05
0.000435468
0.000389478
7.2344e-05
2.23998e-05
1.65557e-05
1.57354e-05
1.57286e-05
1.65497e-05
2.24018e-05
7.2413e-05
0.000389888
0.000146692
3.53574e-05
1.80081e-05
1.5729e-05
1.53302e-05
1.53295e-05
1.57271e-05
1.80015e-05
3.53726e-05
0.000146818
0.000146749
3.53633e-05
1.80004e-05
1.57268e-05
1.53295e-05
1.53295e-05
1.57272e-05
1.80018e-05
3.53734e-05
0.00014681
0.000389789
7.23979e-05
2.24009e-05
1.65488e-05
1.57272e-05
1.57271e-05
1.65489e-05
2.24012e-05
7.24031e-05
0.000389735
0.000435429
9.63901e-05
3.27799e-05
2.24024e-05
1.80015e-05
1.7999e-05
2.23987e-05
3.27629e-05
9.63633e-05
0.000435333
0.000438035
0.00016821
9.6391e-05
7.24007e-05
3.53662e-05
3.5352e-05
7.23819e-05
9.63608e-05
0.000168154
0.000437865
0.000719107
0.000437965
0.000435387
0.000389715
0.000146742
0.000146762
0.000389733
0.000435307
0.000437851
0.000718861
0.000168892
9.4478e-05
8.88948e-05
7.97454e-05
3.6466e-05
3.64801e-05
7.97968e-05
8.89599e-05
9.45539e-05
0.000168981
9.45001e-05
3.96603e-05
2.62619e-05
2.20442e-05
1.59042e-05
1.59059e-05
2.20517e-05
2.62753e-05
3.96848e-05
9.45819e-05
8.89376e-05
2.62674e-05
1.51905e-05
1.33687e-05
1.26132e-05
1.26141e-05
1.33697e-05
1.51906e-05
2.62817e-05
8.90267e-05
7.97802e-05
2.20487e-05
1.33691e-05
1.2245e-05
1.20205e-05
1.20173e-05
1.2242e-05
1.33674e-05
2.20594e-05
7.98625e-05
3.64727e-05
1.59048e-05
1.26139e-05
1.20175e-05
1.18472e-05
1.18469e-05
1.20169e-05
1.26104e-05
1.59058e-05
3.64947e-05
3.64826e-05
1.59045e-05
1.26101e-05
1.20168e-05
1.18469e-05
1.1847e-05
1.2017e-05
1.26106e-05
1.59061e-05
3.64957e-05
7.98442e-05
2.20569e-05
1.33673e-05
1.22417e-05
1.2017e-05
1.2017e-05
1.22418e-05
1.33674e-05
2.20595e-05
7.98795e-05
8.90226e-05
2.62828e-05
1.51918e-05
1.33677e-05
1.26106e-05
1.26099e-05
1.33668e-05
1.51901e-05
2.62846e-05
8.90402e-05
9.45984e-05
3.96945e-05
2.62827e-05
2.20586e-05
1.5905e-05
1.59038e-05
2.20596e-05
2.62843e-05
3.96978e-05
9.46085e-05
0.00016904
9.45891e-05
8.90223e-05
7.98714e-05
3.64954e-05
3.64969e-05
7.98741e-05
8.90365e-05
9.46068e-05
0.000169077
4.05917e-05
2.41563e-05
2.18836e-05
1.97169e-05
1.32153e-05
1.32173e-05
1.97243e-05
2.18937e-05
2.41689e-05
4.06096e-05
2.41591e-05
1.40235e-05
1.15828e-05
1.0801e-05
9.90617e-06
9.90642e-06
1.08021e-05
1.15849e-05
1.40271e-05
2.41735e-05
2.18897e-05
1.15836e-05
9.76963e-06
9.41634e-06
9.27245e-06