/*--------------------------------*- C++ -*----------------------------------*\
  =========                 |
  \\      /  F ield         | OpenFOAM: The Open Source CFD Toolbox
   \\    /   O peration     | Website:  https://openfoam.org
    \\  /    A nd           | Version:  9
     \\/     M anipulation  |
\*---------------------------------------------------------------------------*/
FoamFile
{
    format      ascii;
    class       volScalarField;
    location    "1";
    object      f18.gas;
}
// * * * * * * * * * * * * * * * * * * * * * * * * * * * * * * * * * * * * * //

dimensions      [0 0 0 0 0 0 0];

internalField   nonuniform List<scalar> 
137980
(
0.00313663
0.00339239
0.00296863
0.00287253
0.00287409
0.00288712
0.00306319
0.00321752
0.00334851
0.00335995
0.00325809
0.00359637
0.00326594
0.00305321
0.00310565
0.00292721
0.00299635
0.00324376
0.00353234
0.00361081
0.00303391
0.0030902
0.00363907
0.00367925
0.00378103
0.00371437
0.00353146
0.00355931
0.00354224
0.00347623
0.00304405
0.00292342
0.00314423
0.00347257
0.00357464
0.00390523
0.00368353
0.0033743
0.0028976
0.0027735
0.00284785
0.00277699
0.00293392
0.00315923
0.00326206
0.00354105
0.00368307
0.00360573
0.00291916
0.00266951
0.00274787
0.00274057
0.00278558
0.00299767
0.00316578
0.00328603
0.00354276
0.00362094
0.00291819
0.00280125
0.00269564
0.00279863
0.00304857
0.003123
0.00316827
0.00335352
0.00361023
0.00356435
0.00288979
0.00297634
0.00279155
0.00308444
0.0031662
0.00309136
0.00315673
0.00331463
0.00410246
0.00395594
0.00290757
0.00285498
0.00281701
0.00305553
0.00302382
0.00289415
0.00289067
0.00300802
0.00306898
0.00416135
0.00353174
0.00279648
0.00290592
0.00304079
0.00292644
0.00280693
0.0028061
0.00293627
0.00273402
0.00298588
0.00346147
0.00289498
0.0020829
0.00255713
0.00252498
0.00239752
0.00237664
0.00235086
0.00235149
0.0023746
0.00232975
0.002158
0.00253083
0.00261956
0.00271333
0.00265801
0.00251749
0.00250432
0.0025694
0.00257551
0.00242759
0.00230631
0.00239428
0.00246782
0.00273952
0.00285311
0.00271
0.00269345
0.00272519
0.00273288
0.00267023
0.00261068
0.00238563
0.00242458
0.00255553
0.00274092
0.00261756
0.0026696
0.00265456
0.00262297
0.00253898
0.00240711
0.00230996
0.00236353
0.00252136
0.00263131
0.00251452
0.00252859
0.00252951
0.00243867
0.00230512
0.00219491
0.002245
0.00231288
0.00245873
0.00257602
0.00253356
0.00241608
0.00238443
0.00236895
0.00223685
0.00215401
0.00227525
0.00239526
0.002591
0.00257259
0.00257926
0.00252281
0.0024102
0.00235267
0.00221899
0.00220262
0.00246159
0.00255047
0.00257582
0.00257317
0.00262698
0.0025391
0.00258881
0.0025632
0.00237827
0.0022376
0.00247091
0.00250733
0.0024746
0.00246083
0.00255062
0.00255756
0.0023369
0.00247107
0.00245818
0.00230639
0.00229323
0.00225449
0.00222228
0.00228112
0.00241731
0.00250412
0.00229647
0.00234963
0.00235046
0.00225436
0.00176824
0.0018009
0.0019185
0.00193979
0.001902
0.00185298
0.00183908
0.00184551
0.0019004
0.0018958
0.00187094
0.00202519
0.00204839
0.0020478
0.00202031
0.00197351
0.00196133
0.00196083
0.00196876
0.00197211
0.00207338
0.00208684
0.00208489
0.00207636
0.00203983
0.00199189
0.00197871
0.00197206
0.00197372
0.00195617
0.00207544
0.00209727
0.00209066
0.00207638
0.00200955
0.00198902
0.00196622
0.00195448
0.00197479
0.00194428
0.00214314
0.00209359
0.00203991
0.00203546
0.00202849
0.00199596
0.00196828
0.001966
0.0019956
0.0019718
0.00204218
0.00206463
0.00208521
0.00208821
0.00205591
0.00201688
0.00200656
0.00202029
0.00204431
0.00202697
0.00205147
0.00211373
0.00214009
0.00209514
0.00202866
0.0020197
0.00204437
0.00206857
0.00205959
0.00205467
0.00212437
0.00219366
0.00213578
0.00200002
0.00199809
0.00202945
0.00207579
0.00207103
0.00202078
0.00202249
0.0021615
0.00211018
0.00190881
0.00196006
0.00198304
0.00206315
0.00205716
0.00201617
0.00187166
0.0018874
0.00191581
0.00179545
0.00184014
0.00187909
0.00191919
0.00204283
0.00199474
0.00182404
0.00168198
0.00167246
0.00158595
0.00159866
0.00162127
0.00169065
0.00174326
0.0017496
0.00177756
0.00188986
0.00192924
0.00192054
0.00164399
0.00163802
0.00164124
0.00167475
0.00168231
0.00178591
0.00190129
0.00196312
0.00195693
0.00194316
0.00164625
0.00162687
0.00162585
0.00165834
0.0019166
0.0020031
0.00200564
0.00199246
0.00196424
0.00194532
0.00167041
0.00165787
0.00171412
0.0019984
0.00204115
0.00203481
0.00201384
0.00196789
0.00192946
0.00192592
0.00185128
0.00188495
0.00200307
0.00206207
0.00205372
0.00202345
0.00195108
0.00188626
0.00187399
0.00188061
0.00196766
0.00200711
0.00209268
0.00208147
0.00203751
0.00193225
0.00185954
0.00185082
0.00185928
0.00187214
0.00209377
0.00215861
0.00214508
0.00206372
0.00189631
0.00182929
0.00182868
0.00184236
0.00186419
0.00184167
0.00223697
0.00222158
0.00209014
0.00183694
0.0018008
0.00180457
0.00182555
0.00188378
0.00185386
0.00168204
0.002248
0.00209577
0.00176964
0.00177419
0.00179648
0.00182698
0.00190789
0.00191478
0.00174458
0.00163293
0.00208715
0.00161111
0.00173409
0.00181024
0.00184419
0.00187726
0.00195277
0.00180911
0.00174891
0.00167406
0.00167499
0.00162471
0.00154881
0.00155937
0.00160235
0.00168699
0.00177344
0.00183061
0.00183229
0.00183067
0.0017735
0.0017397
0.00171211
0.00173869
0.00176261
0.00182348
0.00187272
0.00186285
0.001834
0.001826
0.00181887
0.00176587
0.00173733
0.00172825
0.00186326
0.001912
0.00190156
0.00186435
0.00179289
0.0017896
0.0018741
0.00171733
0.00174578
0.00185919
0.00192736
0.00192306
0.00189338
0.00180708
0.00176267
0.00175809
0.00202522
0.00184565
0.00182954
0.00190148
0.00194591
0.00192893
0.00186142
0.00178049
0.00175858
0.00175176
0.00210719
0.00196742
0.00198374
0.00201133
0.00198096
0.00190929
0.00179816
0.00176571
0.00176175
0.00174522
0.00224977
0.00217651
0.00213718
0.00204051
0.00188188
0.00177665
0.00174966
0.00176301
0.00176224
0.001694
0.002269
0.00222679
0.00205518
0.00172432
0.00171848
0.00172242
0.00173836
0.00178415
0.00174602
0.00159667
0.00222557
0.00196625
0.00151558
0.00159069
0.00170822
0.00174567
0.00179944
0.00178274
0.00170294
0.00155657
0.0021244
0.00125898
0.00137321
0.00165762
0.00177881
0.00180401
0.00179785
0.00176165
0.00165515
0.00153963
0.000937127
0.000967305
0.00102757
0.00119672
0.0015387
0.00170292
0.00176047
0.00179378
0.00178871
0.00176213
0.000947753
0.0010123
0.00119513
0.00154207
0.00171447
0.00177725
0.00181083
0.00181701
0.00180183
0.00175989
0.000995128
0.00108609
0.00137831
0.0016477
0.00176042
0.00182494
0.00184004
0.0018332
0.00181001
0.00174629
0.00107063
0.00121509
0.00150077
0.00170113
0.00181044
0.00184906
0.00185773
0.00185489
0.0018264
0.00174942
0.00134303
0.00154487
0.0017291
0.00185573
0.00191632
0.00192341
0.00191306
0.00188552
0.00183149
0.00172137
0.00205761
0.00206095
0.00205681
0.00204842
0.00202838
0.00197789
0.0019294
0.00188443
0.0017765
0.00163087
0.002182
0.00215291
0.00211861
0.00208288
0.00203747
0.00196204
0.00190339
0.00180125
0.00161308
0.00146298
0.00208861
0.00206728
0.0020182
0.00195699
0.00185604
0.00177087
0.00168746
0.00150762
0.00139116
0.00133466
0.00185921
0.00182165
0.00171848
0.00157985
0.00151903
0.00144983
0.00136047
0.00130818
0.00128901
0.00129035
0.00132453
0.00111006
0.00109018
0.00114277
0.00123535
0.00120851
0.00119326
0.00122001
0.00125397
0.00127778
0.00103507
0.0010383
0.00102264
0.000954706
0.000957668
0.00108223
0.00148559
0.00170106
0.00170953
0.00168859
0.000943029
0.000992966
0.000985263
0.000940065
0.000955743
0.00110854
0.00147578
0.00167132
0.00169991
0.0016916
0.000763449
0.000847735
0.000856208
0.000870261
0.000945409
0.00118908
0.00147977
0.00163532
0.00165858
0.00164307
0.000750031
0.000768969
0.000789379
0.000836216
0.000969282
0.00119538
0.0013805
0.00150588
0.00155088
0.00155158
0.000762881
0.000764021
0.000777276
0.000812546
0.000898755
0.00107845
0.001262
0.0013879
0.00144414
0.0014635
0.000927921
0.00091218
0.000927182
0.000975519
0.00110321
0.00125176
0.0013503
0.00140099
0.00142493
0.00143258
0.00141154
0.00134003
0.00134081
0.00136227
0.00140892
0.00143254
0.00143229
0.00143021
0.00142433
0.00141379
0.00161492
0.00156362
0.00153954
0.00153207
0.00151138
0.00149346
0.00145564
0.00143179
0.00137111
0.00134382
0.00161788
0.0015902
0.00156225
0.00151413
0.00144028
0.00137959
0.00130749
0.00126799
0.00119842
0.00119181
0.00149126
0.00146104
0.00132752
0.001157
0.00107259
0.00105303
0.00106819
0.00104753
0.00100328
0.000987827
0.000795276
0.0007139
0.000617091
0.00062288
0.000689294
0.00099722
0.00134217
0.00140486
0.00137869
0.00142003
0.000762165
0.000731204
0.000658714
0.000640965
0.000660022
0.000855862
0.00125936
0.00138352
0.00133067
0.00135402
0.000677118
0.000712357
0.000688776
0.000643056
0.000651064
0.000812539
0.00118639
0.00130089
0.00129276
0.00122997
0.000623341
0.000662263
0.000655405
0.000620458
0.000631509
0.000803209
0.00109912
0.00115728
0.00112553
0.00103796
0.000536227
0.000557239
0.000561698
0.000566005
0.000612078
0.000817565
0.000973213
0.0009703
0.000927877
0.000950695
0.000598565
0.000539037
0.000537882
0.000549232
0.000599317
0.000735872
0.00079382
0.000803773
0.000861517
0.000950083
0.000804127
0.0006263
0.000568955
0.000569207
0.000588094
0.000622389
0.000679529
0.000739409
0.000872212
0.000957269
0.00105096
0.000893546
0.000745346
0.00066296
0.000648634
0.00065706
0.000680362
0.000737438
0.000891739
0.000950342
0.00115957
0.00108398
0.00100095
0.000919493
0.00085742
0.000816834
0.000820633
0.000846491
0.000922423
0.000944643
0.00118308
0.00115284
0.00111821
0.00107272
0.00103404
0.000989745
0.000952853
0.000951709
0.00095704
0.000950299
0.000507303
0.00046066
0.000433771
0.000437218
0.000479524
0.000542
0.00058716
0.000611581
0.000757695
0.000858168
0.000537988
0.000500175
0.000440523
0.000433165
0.000466662
0.000508917
0.000533132
0.000520907
0.000537957
0.000643215
0.000533044
0.000508593
0.000447914
0.000434092
0.000462158
0.000488431
0.000495105
0.000475482
0.000478202
0.000533711
0.000514565
0.000483596
0.00043528
0.000430915
0.000446594
0.000450529
0.000433539
0.00042469
0.000453994
0.000497415
0.000473294
0.00044668
0.000431368
0.000430198
0.000429331
0.000416881
0.000410225
0.000413823
0.000461598
0.000509683
0.000499414
0.000461952
0.000448145
0.000442453
0.000429854
0.000414953
0.000411866
0.000436941
0.000509363
0.000579354
0.000618764
0.000542909
0.000513008
0.000491458
0.000471715
0.000446448
0.000439169
0.000474868
0.000559094
0.000658858
0.000827841
0.000706369
0.000604723
0.000555441
0.000532998
0.000494362
0.000470929
0.000516382
0.0006089
0.000698642
0.000928791
0.000860567
0.000767377
0.00066558
0.000600786
0.000553422
0.000497574
0.000562835
0.000633821
0.00071653
0.000990748
0.000942257
0.000895114
0.000809753
0.000696339
0.000599587
0.000546275
0.000596068
0.000635042
0.000683213
0.000588765
0.000456441
0.000408588
0.000359467
0.000352453
0.000356898
0.000342518
0.0003254
0.000330398
0.000352105
0.000571781
0.000468518
0.000388772
0.000348034
0.000351114
0.00035589
0.000343819
0.000321017
0.000325095
0.000346938
0.000530159
0.000483273
0.000399481
0.000366985
0.00036018
0.000356593
0.000340099
0.000320096
0.000323974
0.000345652
0.000471147
0.000451399
0.000400973
0.000380964
0.000367213
0.00035613
0.000334674
0.000322523
0.000329619
0.000353608
0.000483619
0.000448274
0.000414389
0.000398108
0.000378021
0.00035999
0.000338515
0.000332417
0.000340665
0.000366821
0.00068054
0.000553276
0.000484447
0.000444229
0.000412431
0.000386336
0.000356533
0.000346506
0.000353265
0.000387198
0.000844349
0.000766531
0.000675203
0.000590539
0.000521631
0.000464202
0.000402236
0.000369456
0.000371446
0.000413394
0.000904498
0.000862265
0.000806263
0.000727917
0.000648224
0.000574964
0.000483378
0.000409114
0.0003955
0.000437215
0.000984981
0.000938371
0.00090128
0.00085421
0.000771936
0.000705811
0.000600843
0.000470919
0.000417839
0.000448717
0.000983008
0.000941774
0.000895832
0.000864371
0.000803134
0.000746593
0.00068759
0.000559025
0.000456452
0.000453676
0.000597174
0.000546231
0.00045779
0.000362626
0.000309111
0.000290687
0.000285998
0.000286654
0.000293203
0.000307901
0.000509439
0.000443676
0.000355085
0.000307708
0.000287796
0.00027938
0.000277833
0.000280379
0.000288821
0.000310052
0.000415044
0.000361825
0.000318141
0.000294846
0.000284483
0.000280462
0.000280736
0.00028608
0.000297154
0.000319986
0.000402094
0.000355172
0.000324436
0.000311825
0.00030476
0.000298365
0.000299151
0.000305948
0.00031515
0.00033694
0.000523434
0.000443125
0.000398032
0.000373481
0.000357295
0.000340701
0.000335728
0.000336645
0.000340851
0.000355135
0.000699842
0.000596312
0.000520289
0.000470258
0.000435364
0.000406239
0.00038465
0.000372872
0.000370125
0.000376576
0.000847397
0.000748232
0.000651515
0.000573858
0.000519379
0.000476548
0.000443412
0.00041824
0.000402932
0.000407224
0.000911814
0.000823629
0.000737317
0.00065762
0.000579932
0.000515385
0.00047546
0.000446099
0.000428519
0.000437115
0.000877661
0.000799143
0.000718499
0.000644878
0.00057465
0.000514053
0.000480567
0.000455332
0.000444933
0.000470882
0.000755309
0.000694822
0.00064146
0.000593561
0.000547261
0.000510334
0.000487347
0.000462579
0.000460908
0.000504732
0.000575159
0.000506633
0.000424604
0.000363587
0.000328336
0.000302076
0.00028732
0.000282936
0.000286767
0.000297811
0.000433608
0.00038708
0.000339015
0.000306045
0.000285765
0.000269223
0.000261292
0.000262106
0.000269471
0.000292407
0.000383495
0.000338516
0.000307392
0.000287857
0.000274615
0.00026263
0.000255833
0.00025702
0.000266137
0.000298281
0.000380026
0.000339434
0.000311362
0.000296822
0.000287807
0.000275073
0.000260238
0.000259301
0.00027051
0.000313771
0.000426565
0.00038085
0.000351831
0.000332433
0.000317308
0.000297275
0.00027585
0.000269459
0.000281012
0.000332642
0.00049362
0.000444217
0.000402783
0.000369809
0.000345182
0.000321257
0.000298414
0.000286292
0.000291754
0.000338577
0.000553997
0.000489983
0.000446221
0.00041068
0.000378098
0.000350856
0.000325716
0.000308937
0.000309562
0.000342924
0.000573889
0.00050951
0.000478004
0.000448133
0.00041491
0.00038744
0.000361135
0.000340439
0.000338054
0.00036479
0.000565755
0.000529347
0.00051257
0.000485036
0.000457177
0.000436221
0.000408939
0.000381509
0.000379311
0.000423224
0.000568121
0.000576442
0.000554956
0.000532746
0.000520458
0.000512056
0.000486899
0.000434038
0.000424633
0.000448938
0.00064763
0.000616024
0.000543389
0.000498152
0.000449272
0.000401867
0.000358954
0.000332808
0.000328009
0.000344705
0.000464844
0.00045868
0.000427071
0.000390157
0.000347363
0.000307706
0.000285424
0.000281152
0.000291835
0.000345265
0.00040003
0.000363362
0.000333664
0.000304409
0.000276799
0.000258422
0.000254343
0.000257671
0.00027893
0.000358849
0.000390947
0.000344238
0.000306139
0.000279024
0.000258908
0.000247311
0.000246471
0.000250992
0.000275159
0.000370275
0.000414816
0.000364559
0.000319857
0.000288635
0.000266801
0.000253028
0.000250098
0.000253164
0.00027445
0.000359835
0.000464688
0.000416557
0.00036655
0.000329217
0.000302184
0.000282224
0.000271233
0.000268839
0.000279029
0.000336312
0.0005221
0.000474006
0.000420309
0.000380656
0.000350323
0.000326912
0.000308494
0.000292704
0.000293491
0.000323189
0.000586883
0.000531908
0.000476527
0.000439233
0.000410539
0.00038755
0.000366068
0.00033482
0.00032026
0.00033185
0.000650195
0.000579182
0.000533219
0.000505194
0.000484854
0.000468768
0.000449197
0.00040582
0.000365359
0.00035778
0.000697395
0.000621639
0.00059463
0.000581268
0.000574874
0.00057625
0.000563203
0.000519125
0.000441705
0.000404639
0.000778062
0.000686904
0.000616893
0.000561286
0.000478187
0.000396529
0.000361165
0.000359811
0.000392179
0.000520329
0.000600443
0.000535515
0.000482213
0.000430045
0.000366029
0.000325247
0.000315946
0.00032521
0.00039069
0.000570533
0.000534335
0.000474616
0.000414917
0.000358272
0.000314995
0.000293225
0.000292317
0.000305141
0.000373627
0.000540688
0.000475346
0.000409944
0.000358761
0.000322172
0.000295535
0.000282401
0.000283487
0.000295609
0.000347121
0.000479422
0.000453827
0.000392083
0.000350229
0.000320188
0.000298705
0.000286477
0.00028635
0.00029426
0.00032825
0.0004264
0.000477603
0.000422797
0.00038475
0.000356748
0.000336967
0.000320722
0.000312858
0.000312939
0.000327817
0.000392843
0.000537615
0.000484256
0.000446944
0.000419842
0.00040042
0.000383881
0.000368328
0.000350948
0.000351651
0.00038936
0.00061465
0.000555997
0.000522031
0.000500356
0.000486228
0.000476058
0.000457099
0.000419202
0.000392905
0.000406964
0.000702121
0.000637012
0.000610722
0.000597003
0.000593901
0.000594068
0.000578347
0.000529612
0.000459128
0.000448944
0.000791747
0.000723066
0.000705222
0.000702779
0.000717037
0.000741689
0.000735572
0.000687401
0.000567209
0.000519506
0.00100874
0.000867727
0.000784198
0.000679365
0.00056925
0.000518866
0.000512694
0.000530203
0.000617652
0.000827313
0.000794164
0.00070179
0.000617008
0.0005305
0.000468146
0.000445941
0.000451153
0.000493252
0.000634727
0.000885588
0.000774736
0.000643501
0.000534689
0.000461483
0.000417664
0.000408208
0.000421242
0.000474121
0.00062169
0.000854278
0.000740051
0.000589245
0.000497326
0.000438472
0.000403569
0.000398153
0.000413033
0.00046532
0.000603601
0.000807528
0.000688057
0.00056942
0.000491938
0.000440344
0.000412264
0.000408021
0.000419844
0.00046335
0.000583008
0.000773867
0.000674128
0.000584631
0.000525792
0.000485125
0.000462463
0.000455323
0.000458428
0.000477959
0.000567489
0.000753906
0.000720978
0.000655607
0.000601681
0.0005679
0.000551232
0.000543076
0.000535377
0.000528214
0.00057347
0.000741093
0.000815462
0.000750552
0.000704768
0.000686591
0.000681983
0.000678421
0.000663641
0.000620967
0.000619059
0.000734758
0.000942923
0.000872099
0.000842379
0.000839045
0.000847967
0.000857498
0.000846637
0.000788495
0.000714928
0.000771353
0.00109657
0.00101681
0.0010006
0.00100785
0.00103505
0.00107269
0.00109215
0.00104974
0.000927816
0.00091803
0.00119402
0.00103112
0.000898966
0.000782011
0.000720807
0.000714639
0.000739616
0.000821186
0.000969696
0.00119429
0.00103991
0.000904982
0.000770231
0.000682831
0.000641798
0.000643896
0.000690556
0.0008014
0.000983703
0.00123781
0.00103546
0.000841294
0.000706227
0.000635309
0.000605879
0.000612937
0.00066863
0.00078525
0.000971567
0.00120565
0.000987657
0.000794339
0.00068537
0.000622533
0.00059754
0.00060587
0.000660954
0.000772028
0.000947765
0.00115008
0.000948682
0.000781738
0.000688769
0.000632558
0.00061062
0.000615908
0.000662918
0.000763575
0.000925217
0.0011212
0.000940126
0.000815226
0.000746744
0.000689438
0.000661787
0.000658177
0.000685558
0.00076116
0.000914382
0.00111254
0.000993429
0.000911759
0.000843861
0.000782165
0.000749107
0.000741222
0.000751303
0.000789843
0.00091463
0.00111782
0.0011058
0.00103935
0.000968245
0.000912263
0.00088528
0.000880063
0.000887327
0.000893665
0.000949144
0.0011226
0.00126926
0.00119732
0.00112498
0.0010806
0.00106792
0.00107658
0.00110393
0.00111618
0.00111504
0.00119752
0.00149058
0.00138448
0.00131305
0.00128301
0.00128009
0.0013108
0.00137372
0.00143131
0.00145831
0.00148169
0.00120718
0.00104798
0.00090188
0.00081676
0.000789673
0.00080489
0.000865931
0.000974696
0.00112569
0.00132474
0.00110929
0.000942928
0.000801616
0.000735912
0.00071835
0.000737853
0.000810095
0.000926218
0.00108157
0.00128493
0.00107673
0.000867185
0.000747465
0.000696019
0.000683217
0.000702819
0.000775146
0.00089301
0.00104743
0.00124305
0.00102139
0.000833166
0.000732086
0.000684526
0.000672028
0.000689272
0.000756612
0.000869443
0.00102065
0.00119854
0.00099808
0.000827459
0.000740572
0.000691777
0.000675557
0.000687543
0.000750135
0.000857387
0.00100481
0.001182
0.0010054
0.000872212
0.000808841
0.000742638
0.000712071
0.000709984
0.000757682
0.000855351
0.00100175
0.00118616
0.00106845
0.00097356
0.000913932
0.000831532
0.000782196
0.000773081
0.000804398
0.000881483
0.00101147
0.00120097
0.00117566
0.00111072
0.00104003
0.000949239
0.000900628
0.000893074
0.000925236
0.000983016
0.00106703
0.00122286
0.00133729
0.00127604
0.00118387
0.00109985
0.00107174
0.00107975
0.0011368
0.00120781
0.00126497
0.00134428
0.00156558
0.00146749
0.00135497
0.00129448
0.00128144
0.00131302
0.00139838
0.00150987
0.00160044
0.00163329
0.000708662
0.00067156
0.000631783
0.00061008
0.000605395
0.000604791
0.000605544
0.00062582
0.000671886
0.000732111
0.000682087
0.000620791
0.000580326
0.000567959
0.000569724
0.000570711
0.000574462
0.000600982
0.000643372
0.000699612
0.000671052
0.000592069
0.000559823
0.000548181
0.000545436
0.000547504
0.000561884
0.000592224
0.00063265
0.000679191
0.000651453
0.000579931
0.000552819
0.000541376
0.000537669
0.000540633
0.000559493
0.000589124
0.000624272
0.0006528
0.000643577
0.000577146
0.000554435
0.000543113
0.000538422
0.000541141
0.000559438
0.00058354
0.000612657
0.000641701
0.000645679
0.000592881
0.000581989
0.000563121
0.000548169
0.000546898
0.000560545
0.000581913
0.000612297
0.000645223
0.000671421
0.00062884
0.000632522
0.000604825
0.000566822
0.000560137
0.000567829
0.000588153
0.000618577
0.000660093
0.00072715
0.000674427
0.000696457
0.000652587
0.000595694
0.000581487
0.000588061
0.00060946
0.000634987
0.000678885
0.000798528
0.000749848
0.000760209
0.000693011
0.000634654
0.000620509
0.000629724
0.000653055
0.000674296
0.000705481
0.000875929
0.000849603
0.000782622
0.000718313
0.00067553
0.000661275
0.000660528
0.000673248
0.000697079
0.000723217
0.000340104
0.000343044
0.000346688
0.000346012
0.000326371
0.000306296
0.000299758
0.000306242
0.000312504
0.00031886
0.000334418
0.000323642
0.000316778
0.000318665
0.000308089
0.000290969
0.000289569
0.000296749
0.00030547
0.000314647
0.000332122
0.000310175
0.000301541
0.000296892
0.000287038
0.000281465
0.000282915
0.000291271
0.000300284
0.00030556
0.000323009
0.000299211
0.000290044
0.000282958
0.000276569
0.000274801
0.000276454
0.00028271
0.000289612
0.000293351
0.00031618
0.000294498
0.000286253
0.000280307
0.000276282
0.000274545
0.000273908
0.000275623
0.000279934
0.00028584
0.000313801
0.000293603
0.000287044
0.00028237
0.000279037
0.000277143
0.000275741
0.000276082
0.000280792
0.000287733
0.000317752
0.000301352
0.000299174
0.000291154
0.000285328
0.000284422
0.000284256
0.000285515
0.000290532
0.000297289
0.00033264
0.000314704
0.00031989
0.000307463
0.000292974
0.000289797
0.000292065
0.000294393
0.000298627
0.000304184
0.000358245
0.00033718
0.000335358
0.00031882
0.00030327
0.000294374
0.000296475
0.000299921
0.000303719
0.000308672
0.00038266
0.000368024
0.000339082
0.00032215
0.000310099
0.00030093
0.000302637
0.000306223
0.000309346
0.00031336
0.000200653
0.000204584
0.000210789
0.000211731
0.000188185
0.000180892
0.000182555
0.000185378
0.00018619
0.00018825
0.000201921
0.0002008
0.000201105
0.00020392
0.000182005
0.000174769
0.000176027
0.000179097
0.000181597
0.000186914
0.000205883
0.000200784
0.000197618
0.000190652
0.000173192
0.000169908
0.000171678
0.0001759
0.00018022
0.00018473
0.000203076
0.000193038
0.000188034
0.00017776
0.000168364
0.000166603
0.000168095
0.00017288
0.000178024
0.000182707
0.000192355
0.000184247
0.000179243
0.000172074
0.000168037
0.000166909
0.000166882
0.000169271
0.000173088
0.000177145
0.000188537
0.000180285
0.000175569
0.000171463
0.000169292
0.000168307
0.000168041
0.000169694
0.000172642
0.000175775
0.000188395
0.000181617
0.000178664
0.000175636
0.000174174
0.000173462
0.000173295
0.000174715
0.000177941
0.000181552
0.000193117
0.000189286
0.000187817
0.000182498
0.00017973
0.000178669
0.000178339
0.000179048
0.00018108
0.000184648
0.000203298
0.000204323
0.000200532
0.00019263
0.000185016
0.000182084
0.000181518
0.000181694
0.000182602
0.0001858
0.000222115
0.000219045
0.000205322
0.000197552
0.00019343
0.000186142
0.000186124
0.000187468
0.000188116
0.000188787
0.000144606
0.000143507
0.000144055
0.000147489
0.000140963
0.000133476
0.000134983
0.000138599
0.000139677
0.000141044
0.000144524
0.000141903
0.000142662
0.00014507
0.0001351
0.000129433
0.000130195
0.000133452
0.000135526
0.000139614
0.000144886
0.000142204
0.000142026
0.000141723
0.000130642
0.000126276
0.000126789
0.000130176
0.000133712
0.000138479
0.000146194
0.000143214
0.000141409
0.000137788
0.000127645
0.000124266
0.000124299
0.000126758
0.000130762
0.000135816
0.00014865
0.000143392
0.000139738
0.000133613
0.000126514
0.000124469
0.000124259
0.000125338
0.000127948
0.000131777
0.000146421
0.000140531
0.000135298
0.000129872
0.00012627
0.000124978
0.000124726
0.000125872
0.000128047
0.000131196
0.000140919
0.00013645
0.00013299
0.000129688
0.000127629
0.000126847
0.000126634
0.000127466
0.000129571
0.000132728
0.000141661
0.000139405
0.000136797
0.000134495
0.00013285
0.000130444
0.000129478
0.000129729
0.000132384
0.00013652
0.000149869
0.000149519
0.000144809
0.000140867
0.000137769
0.000133753
0.000132339
0.000132974
0.000135036
0.00013826
0.000164886
0.000158329
0.00015169
0.000147576
0.000144531
0.000138313
0.00013638
0.000137883
0.000139274
0.00014007
0.000120533
0.000118827
0.00011673
0.00011586
0.000113479
0.000110624
0.000111665
0.000115042
0.000116684
0.000118131
0.000119701
0.000116786
0.000114696
0.000114409
0.000111428
0.000108542
0.000108879
0.000111312
0.000113565
0.000116638
0.000119443
0.000115757
0.000113603
0.000113362
0.000109704
0.000106829
0.000106757
0.000108518
0.000111079
0.000114617
0.000118794
0.000115453
0.000113685
0.000112796
0.000108493
0.000105953
0.000105599
0.000106351
0.000108247
0.000110829
0.000118925
0.000115971
0.000114622
0.00011233
0.000108068
0.000106336
0.000105973
0.000106174
0.000107366
0.000109201
0.000121052
0.000117908
0.000114779
0.000111315
0.000108087
0.000106844
0.000106477
0.000106702
0.000107756
0.000109352
0.000120821
0.00011715
0.000113738
0.000110592
0.00010866
0.000107869
0.000107491
0.000107422
0.000108422
0.00011039
0.000119548
0.000117111
0.000114262
0.000112621
0.000111879
0.000110557
0.000109111
0.000108891
0.000110505
0.000113386
0.000124155
0.000121721
0.000119126
0.000117656
0.000116278
0.000113103
0.000111008
0.000111091
0.000113043
0.000115464
0.000133256
0.000129154
0.000125756
0.000122606
0.000120817
0.000117363
0.000113412
0.000114005
0.000116239
0.000117274
0.000109203
0.000107592
0.000105834
0.000104191
0.000102719
0.000101757
0.000102416
0.000104007
0.000105428
0.000106814
0.000108796
0.000106643
0.000104813
0.000103215
0.000101787
0.000100697
0.000100827
0.000101903
0.000103293
0.000105291
0.000108408
0.000106033
0.000103969
0.000102478
0.000100937
9.97508e-05
9.96394e-05
0.000100404
0.00010165
0.000103567
0.000108084
0.000105684
0.000103643
0.000102143
0.000100356
9.92572e-05
9.90046e-05
9.93102e-05
0.000100263
0.000101589
0.00010812
0.000105755
0.000103832
0.000102219
0.000100366
9.94658e-05
9.92087e-05
9.92478e-05
9.98724e-05
0.000100759
0.000109478
0.000106915
0.000104617
0.000102315
0.000100619
9.99284e-05
9.96731e-05
9.96657e-05
0.000100184
0.000101069
0.000109959
0.000107368
0.00010469
0.000102529
0.000101443
0.00010106
0.000100547
0.000100392
0.000100949
0.00010215
0.000109463
0.000107518
0.000105134
0.000104009
0.000103824
0.000103156
0.000101884
0.000101567
0.00010224
0.000103623
0.000114302
0.000110907
0.000108428
0.00010754
0.000106946
0.000105545
0.000103436
0.000103007
0.000103749
0.000105079
0.000116901
0.000114487
0.000112396
0.000110669
0.000109393
0.000107945
0.000105224
0.00010469
0.000105668
0.000106557
0.000108008
0.000106502
0.000105337
0.000103886
0.000102208
0.000101251
0.000101899
0.000103229
0.000104073
0.000105149
0.000108033
0.000105835
0.000104314
0.00010286
0.000101293
0.000100269
0.00010048
0.00010129
0.000102262
0.000103963
0.000108039
0.000105707
0.000103814
0.000102129
0.000100475
9.94705e-05
9.94149e-05
0.000100022
0.000101079
0.000102895
0.000108016
0.000105697
0.000103463
0.000101475
9.98288e-05
9.89608e-05
9.87736e-05
9.90963e-05
9.9932e-05
0.000101213
0.000108204
0.000105596
0.000103153
0.000101193
9.97131e-05
9.89596e-05
9.87272e-05
9.88226e-05
9.93656e-05
0.000100208
0.000108455
0.000105673
0.000103203
0.000101286
0.000100023
9.94427e-05
9.92217e-05
9.92693e-05
9.97975e-05
0.000100626
0.000108881
0.000106042
0.000103634
0.000101872
0.000101
0.000100519
0.000100202
0.000100206
0.000100819
0.000101894
0.000110345
0.000107282
0.000104879
0.000103463
0.000102905
0.000102254
0.000101523
0.000101417
0.000101928
0.000103109
0.000113717
0.000110963
0.000108468
0.00010677
0.000105626
0.000104455
0.000103047
0.000102847
0.000103175
0.000104011
0.000114701
0.000112718
0.000111064
0.000109438
0.000107863
0.000106319
0.000104611
0.000104589
0.000105014
0.000105365
0.00148695
0.00101531
0.00115606
0.00106059
0.000288657
0.00028887
0.00106153
0.00115742
0.00101672
0.00148796
0.00101598
0.000334963
0.000199811
0.00015255
4.14705e-05
4.14988e-05
0.000152687
0.000200069
0.000335517
0.00101822
0.00115708
0.00019995
3.91754e-05
1.7062e-05
5.49523e-06
5.49825e-06
1.70789e-05
3.92626e-05
0.000200544
0.00115987
0.0010614
0.000152667
1.70726e-05
3.41328e-06
2.01237e-06
2.01193e-06
3.41738e-06
1.71382e-05
0.000153226
0.00106406
0.000288856
4.1502e-05
5.4985e-06
2.01188e-06
1.76497e-06
1.76493e-06
2.01273e-06
5.51504e-06
4.16702e-05
0.000289794
0.00028902
4.15329e-05
5.50164e-06
2.01208e-06
1.76494e-06
1.76497e-06
2.01289e-06
5.51558e-06
4.16723e-05
0.000289788
0.00106324
0.000153092
1.71303e-05
3.42092e-06
2.01286e-06
2.0129e-06
3.42182e-06
1.71452e-05
0.00015322
0.00106371
0.0011598
0.000200624
3.93404e-05
1.7144e-05
5.5153e-06
5.5153e-06
1.71442e-05
3.93395e-05
0.000200596
0.0011596
0.00101854
0.000336008
0.000200622
0.000153209
4.16634e-05
4.16626e-05
0.000153197
0.000200584
0.000335921
0.0010182
0.00149021
0.00101837
0.00115968
0.00106364
0.000289672
0.000289715
0.00106369
0.00115951
0.00101814
0.00148978
0.000303636
0.000181442
0.000200541
0.000184012
5.01867e-05
5.0222e-05
0.000184169
0.000200772
0.000181692
0.000303903
0.00018153
5.55093e-05
3.29408e-05
2.55449e-05
7.63407e-06
7.63846e-06
2.55666e-05
3.29811e-05
5.56013e-05
0.000182048
0.000200698
3.29618e-05
6.88255e-06
3.58617e-06
1.8834e-06
1.88388e-06
3.58863e-06
6.89635e-06
3.3075e-05
0.000201372
0.000184157
2.5565e-05
3.58786e-06
1.54699e-06
1.34384e-06
1.34352e-06
1.54733e-06
3.59815e-06