/*--------------------------------*- C++ -*----------------------------------*\
  =========                 |
  \\      /  F ield         | OpenFOAM: The Open Source CFD Toolbox
   \\    /   O peration     | Website:  https://openfoam.org
    \\  /    A nd           | Version:  9
     \\/     M anipulation  |
\*---------------------------------------------------------------------------*/
FoamFile
{
    format      ascii;
    class       volScalarField;
    location    "1";
    object      f19.gas;
}
// * * * * * * * * * * * * * * * * * * * * * * * * * * * * * * * * * * * * * //

dimensions      [0 0 0 0 0 0 0];

internalField   nonuniform List<scalar> 
137980
(
0.00226712
0.00237933
0.00214167
0.00205883
0.00197127
0.00195925
0.00209423
0.00222418
0.00230952
0.00233353
0.00233823
0.00249421
0.00225913
0.00212371
0.00214931
0.00199378
0.00203269
0.00222675
0.00245877
0.00252377
0.00223669
0.00218634
0.00255317
0.00260757
0.00271028
0.00261724
0.00245786
0.00247823
0.00246215
0.00244509
0.002213
0.00206828
0.00220582
0.00245978
0.00254379
0.00276997
0.00257702
0.00232394
0.00202095
0.00196214
0.0020279
0.00195093
0.00205253
0.00223117
0.00229092
0.00247889
0.00258695
0.00251581
0.00202764
0.00189609
0.0019748
0.00197194
0.00203097
0.00218853
0.00223775
0.0022828
0.00246741
0.00252791
0.00209154
0.00212028
0.00199916
0.00203647
0.00218715
0.0022301
0.00221641
0.00232858
0.00250876
0.00251333
0.00211136
0.00231088
0.00211052
0.00219187
0.00224701
0.00219256
0.00222406
0.0023271
0.0028906
0.00280735
0.00212164
0.00216453
0.00216123
0.00219315
0.00216875
0.00206288
0.0020588
0.00214893
0.00221077
0.0029647
0.00253221
0.00205737
0.00220576
0.00222659
0.00215637
0.00206071
0.00201275
0.00212633
0.00209557
0.00219216
0.00247698
0.00217636
0.0015321
0.00174028
0.00166953
0.00160099
0.00160585
0.00156059
0.00154847
0.00156479
0.00161838
0.00167745
0.001805
0.0017994
0.00186254
0.0018043
0.00166525
0.00164318
0.00169802
0.00171586
0.00169258
0.00169374
0.00173004
0.00172998
0.00188842
0.001979
0.00183285
0.00180339
0.00182028
0.00183447
0.00180799
0.00178861
0.00174346
0.00171808
0.00177307
0.00190373
0.00177275
0.00179928
0.00178678
0.00177237
0.00173017
0.00167086
0.00166034
0.00168681
0.00176805
0.00182172
0.00169847
0.00170901
0.00172285
0.00166912
0.00157174
0.00153323
0.0015889
0.00162124
0.00169226
0.00177056
0.00174414
0.00163285
0.0016213
0.00160776
0.00151615
0.00149459
0.00157159
0.00164984
0.00178078
0.00179337
0.00182182
0.00175042
0.00163256
0.00159765
0.00150061
0.00149838
0.00164769
0.00173804
0.00178106
0.00183112
0.00189734
0.00182214
0.00179377
0.00176122
0.0016269
0.00149751
0.00165159
0.00170818
0.0017058
0.00179213
0.00187839
0.00187909
0.00165493
0.00171154
0.00168892
0.00154487
0.00152324
0.00150336
0.00148775
0.00165009
0.0018429
0.00188799
0.00165384
0.00164813
0.00160018
0.00152477
0.00110433
0.00114294
0.00125443
0.00126533
0.00122469
0.00117818
0.00116506
0.00116994
0.00122238
0.0012172
0.00120868
0.0013485
0.00136455
0.00135886
0.00132772
0.00128281
0.00127039
0.00127427
0.00129363
0.00129909
0.00140023
0.00140738
0.00139681
0.00138165
0.00134219
0.00129812
0.00128807
0.00129121
0.00130198
0.00128697
0.00140996
0.00141875
0.0013996
0.00137685
0.00131459
0.00129864
0.00128753
0.00128278
0.00130364
0.00127653
0.00146699
0.00141154
0.00134447
0.00134097
0.00133603
0.0013131
0.00129313
0.00129298
0.00131901
0.00130635
0.00135811
0.00136814
0.00138041
0.00138163
0.00135852
0.00132936
0.00132649
0.00133855
0.00135887
0.00134583
0.00135959
0.00140015
0.00141958
0.00138569
0.0013326
0.0013301
0.00135343
0.00138174
0.00137275
0.00136797
0.0014059
0.00145742
0.00141613
0.00131093
0.00130898
0.00134505
0.00139269
0.00138971
0.00134473
0.00134386
0.00143417
0.00139334
0.00123285
0.00127863
0.00130545
0.00139182
0.00138975
0.00135694
0.00122115
0.0012316
0.00123925
0.00114265
0.00117523
0.00120665
0.00124977
0.00138151
0.00134949
0.00119285
0.00104194
0.00103299
0.000964982
0.000970859
0.000980642
0.0010325
0.00106813
0.00107762
0.00111368
0.00122037
0.00125631
0.00125636
0.00101788
0.00100514
0.00100068
0.0010214
0.00102728
0.00112667
0.00123224
0.00128083
0.00127793
0.00126933
0.00101764
0.000995868
0.000992113
0.00101887
0.00124145
0.00131148
0.00131454
0.00130419
0.00128337
0.00127042
0.00103927
0.00102631
0.00107282
0.00130836
0.00134059
0.00133622
0.00132041
0.00128407
0.00125441
0.00125227
0.00119555
0.00121811
0.0013103
0.00135497
0.00134894
0.00132589
0.0012686
0.00121731
0.00120912
0.00121566
0.00127808
0.00130824
0.00137654
0.0013688
0.00133511
0.00125348
0.00119398
0.00118869
0.00119681
0.00120986
0.0013717
0.00142888
0.00141936
0.00135633
0.00122377
0.00116769
0.00116831
0.0011813
0.00120308
0.00118463
0.00149267
0.00148244
0.00137952
0.00117107
0.0011415
0.00114594
0.00116555
0.00122047
0.00119609
0.00104626
0.00150055
0.00138166
0.00111953
0.00111757
0.00113636
0.0011655
0.0012417
0.00124955
0.00109826
0.00100392
0.00137913
0.000997765
0.00108878
0.00114273
0.00117705
0.00121641
0.00128548
0.00116071
0.00110123
0.00104017
0.00105501
0.00101944
0.000960422
0.000968365
0.00100243
0.00106864
0.0011308
0.0011805
0.00118387
0.00118493
0.001127
0.00110637
0.00108771
0.00111007
0.00112701
0.00117332
0.00121606
0.00120954
0.00118664
0.0011805
0.00116087
0.00112924
0.00110666
0.00109605
0.0012065
0.00124944
0.00124128
0.00121265
0.00115541
0.00115092
0.00120435
0.0010861
0.00111038
0.00120404
0.00126233
0.0012595
0.00123626
0.00116641
0.00113042
0.00112498
0.00132648
0.00119199
0.0011799
0.00124091
0.00127804
0.00126435
0.00120876
0.0011439
0.00112558
0.00111805
0.00139491
0.00128895
0.00130442
0.00132883
0.00130443
0.00124509
0.00115446
0.00112938
0.00112366
0.00110557
0.00151234
0.00145662
0.00142652
0.0013523
0.00122091
0.00113338
0.00111395
0.0011246
0.00111918
0.00105455
0.00153103
0.00149844
0.00136216
0.00109247
0.00108282
0.00108791
0.00110408
0.00113762
0.00109597
0.000970593
0.00149791
0.00129522
0.00092612
0.000980772
0.00107187
0.00111314
0.0011481
0.00112791
0.00104787
0.000938816
0.00141451
0.000740549
0.000812086
0.00102838
0.00112477
0.00114475
0.00113737
0.00110223
0.00101271
0.000925461
0.000513818
0.000534819
0.000578128
0.00070215
0.000967438
0.00109168
0.00113183
0.00115591
0.00115496
0.00113735
0.000519259
0.000565442
0.000695422
0.000966685
0.00109968
0.00114476
0.00117065
0.00117896
0.00116814
0.00113564
0.000550885
0.000616597
0.000836109
0.00104799
0.00113506
0.0011858
0.00120057
0.00119607
0.00117978
0.00112865
0.000605562
0.000711027
0.000933404
0.00109066
0.00117712
0.00120942
0.00121897
0.00121741
0.00119439
0.00113121
0.000806766
0.000963296
0.00111239
0.00121664
0.00126663
0.0012726
0.00126399
0.00124172
0.00119728
0.00110192
0.0013752
0.00137744
0.00137447
0.00136861
0.00135335
0.00131402
0.00127556
0.00123717
0.00114509
0.00102316
0.00146845
0.00144715
0.0014212
0.00139379
0.00135561
0.00129407
0.00124491
0.0011585
0.00100447
0.00088695
0.00138223
0.00136648
0.00132891
0.00127857
0.00119374
0.00112884
0.00105608
0.000917502
0.000831537
0.000789783
0.00119675
0.00116702
0.00108476
0.000977569
0.00092924
0.000874641
0.000812017
0.000770618
0.000755708
0.000756025
0.000794036
0.000632546
0.000618031
0.000654641
0.000720302
0.000697977
0.000684854
0.000703983
0.00072947
0.000746237
0.000597437
0.000599036
0.000588345
0.000542468
0.000544298
0.000634418
0.000933017
0.00109351
0.0011004
0.00108341
0.000536124
0.000569923
0.000564456
0.000532058
0.000543436
0.000653978
0.000926442
0.00107477
0.00109728
0.00108965
0.000408754
0.000469463
0.000474234
0.000482533
0.000535383
0.00071134
0.000930559
0.00105111
0.00106989
0.00105827
0.000397706
0.000411114
0.000424545
0.000456991
0.000551476
0.00071687
0.000857548
0.000954894
0.000990478
0.000990948
0.000405177
0.000406846
0.000416045
0.000439941
0.000499106
0.000630408
0.000767946
0.000862709
0.000905734
0.000919306
0.000516261
0.000508589
0.000519788
0.000555325
0.000649926
0.000758588
0.000830818
0.000868076
0.00088577
0.000890613
0.000865278
0.000815797
0.000818653
0.000836459
0.000869963
0.00088583
0.000885143
0.000884189
0.000879173
0.000870085
0.00101686
0.000978631
0.000961542
0.000955959
0.000940533
0.000927
0.000898466
0.000879451
0.000831629
0.000809869
0.00101552
0.000993892
0.000973093
0.00093473
0.000878711
0.000831906
0.000779121
0.000748166
0.000697279
0.000693573
0.000910451
0.000887947
0.000790099
0.0006697
0.000612278
0.000598835
0.000609558
0.000595748
0.000565984
0.000555348
0.000439712
0.00039664
0.000328283
0.000331345
0.000375303
0.000591319
0.000840983
0.000886928
0.00086487
0.000889025
0.000418714
0.000402583
0.000357386
0.000343058
0.000354939
0.000491158
0.000782052
0.000872758
0.000833992
0.000846617
0.000362819
0.000389075
0.000373651
0.000343525
0.000348444
0.000461268
0.00072938
0.000813484
0.000807684
0.000762065
0.000325967
0.000352259
0.000349314
0.000327369
0.000334852
0.000455429
0.000666726
0.000708567
0.000686113
0.000622374
0.000270457
0.000285564
0.000288677
0.000292446
0.000323855
0.000466907
0.000576138
0.000573616
0.000538921
0.000550085
0.000308389
0.00027394
0.000273764
0.000281567
0.000315808
0.000410113
0.000448825
0.000452816
0.000488938
0.000545653
0.000435862
0.000327378
0.000292732
0.000293435
0.000306365
0.000329018
0.000366227
0.000405122
0.000493508
0.000548684
0.000598879
0.000496931
0.000402452
0.000351371
0.00034373
0.000349425
0.000364614
0.000402343
0.000504529
0.000540619
0.00067246
0.000622588
0.000568841
0.000516304
0.000476142
0.000450911
0.000453644
0.000470742
0.000520823
0.000535791
0.000684804
0.000667192
0.000645618
0.000616309
0.000591487
0.000562514
0.0005394
0.000539018
0.0005428
0.00053866
0.000252323
0.000222782
0.000209379
0.000215566
0.000243555
0.000284731
0.000314539
0.000327806
0.000422132
0.000487439
0.000269223
0.000246193
0.000213286
0.000213009
0.000235612
0.000262983
0.000279081
0.000269488
0.000276727
0.000344503
0.000266144
0.000251276
0.000217801
0.000213897
0.000232979
0.000249778
0.000253494
0.000239505
0.000237703
0.000271708
0.000255161
0.000236818
0.000212501
0.000211708
0.000222799
0.000225356
0.000212422
0.00020564
0.000221647
0.000247766
0.000232417
0.000218505
0.000210851
0.00021091
0.000210403
0.000202041
0.000197045
0.000198222
0.000226295
0.000255109
0.000250568
0.000228961
0.000220958
0.000217872
0.000210294
0.000200292
0.000198022
0.000211783
0.000255578
0.000298658
0.000323685
0.000277571
0.000259754
0.000247064
0.000234863
0.000218539
0.000213839
0.000234474
0.000285858
0.000350238
0.00045264
0.000376577
0.000314411
0.000285142
0.00027217
0.000247859
0.000232227
0.000259102
0.000316152
0.00037581
0.000515507
0.000474613
0.000415903
0.000351887
0.000312079
0.000284197
0.000248327
0.000286404
0.000329996
0.000384613
0.000554622
0.000524914
0.000497086
0.000443681
0.00037175
0.000312272
0.000278637
0.000306257
0.000330401
0.00036286
0.000298812
0.000219395
0.000192103
0.000165239
0.000162648
0.000165929
0.000157462
0.000146424
0.000148367
0.000159119
0.000288474
0.000226457
0.000180692
0.000159315
0.000162357
0.000166053
0.000159176
0.000144677
0.000146069
0.000156864
0.000263308
0.00023612
0.000187296
0.000169854
0.000168091
0.000166795
0.000158088
0.000145153
0.000146338
0.000157087
0.000229851
0.000218257
0.000188769
0.000178946
0.000172675
0.000167065
0.000155029
0.000146966
0.00015019
0.000162442
0.00023859
0.000217645
0.000198266
0.000190611
0.000180043
0.000169989
0.000157395
0.000152744
0.000156673
0.000170103
0.000362703
0.000284146
0.000242951
0.000219712
0.000200945
0.000185524
0.000167757
0.000160795
0.000163926
0.000181675
0.000462759
0.000415982
0.000360874
0.000309961
0.000267897
0.000232696
0.000194972
0.000174005
0.000174253
0.000196411
0.000499044
0.000474707
0.000441152
0.000393288
0.000345298
0.000300844
0.000244695
0.000197838
0.000187491
0.00020944
0.000550045
0.00052268
0.000501085
0.000472725
0.000421986
0.000381247
0.000316048
0.000235158
0.000200123
0.000215816
0.00054923
0.000525338
0.000498358
0.000479934
0.000442704
0.000407573
0.000371015
0.000290701
0.000223694
0.000218909
0.000302131
0.000272085
0.00022068
0.000166598
0.000137285
0.000127753
0.000124994
0.000125113
0.000127989
0.00013478
0.000248432
0.000211246
0.000162037
0.000136977
0.000126853
0.000122478
0.000121382
0.000122537
0.00012641
0.000136632
0.000194174
0.000165375
0.000142296
0.000130603
0.000125853
0.000124175
0.000124261
0.000127236
0.000132561
0.000143639
0.000187712
0.000162559
0.000146728
0.00014106
0.000138016
0.000134952
0.000135451
0.000139217
0.000143455
0.000153783
0.000261353
0.000215048
0.000189573
0.000176484
0.000168191
0.000159313
0.000156701
0.00015694
0.000158422
0.000164987
0.000372089
0.000309447
0.000263908
0.000234812
0.000214934
0.000198157
0.000185931
0.00017861
0.000175179
0.000177861
0.000464514
0.000404178
0.000345298
0.000298173
0.000266068
0.000240456
0.000220957
0.000206096
0.000194353
0.000195476
0.000506392
0.00045255
0.000399876
0.000350743
0.000303398
0.000263746
0.000239889
0.000222038
0.000208763
0.000211809
0.00048475
0.000436909
0.000387512
0.000342309
0.000299619
0.000262107
0.00024231
0.000226493
0.000217238
0.000230162
0.000407338
0.000370193
0.000337657
0.000308279
0.000280097
0.000257736
0.00024436
0.000228944
0.000224804
0.00024828
0.000289069
0.000248518
0.000200964
0.000167331
0.000148556
0.000134064
0.000125373
0.000122532
0.000123959
0.000128773
0.000203907
0.000178697
0.000153237
0.000136346
0.000125991
0.000117458
0.000112453
0.000112536
0.000115715
0.000126624
0.000176113
0.00015257
0.000136673
0.000126997
0.000120352
0.000114328
0.000110022
0.000110253
0.000114375
0.000130305
0.000175043
0.000153854
0.00013985
0.000133246
0.000129109
0.00012267
0.000113493
0.000111994
0.000117413
0.000139411
0.00020211
0.000177964
0.000163167
0.000153356
0.000145719
0.000134819
0.000122251
0.000117668
0.000123149
0.000150144
0.000242222
0.000215353
0.000192278
0.000174395
0.000161311
0.000148145
0.000134697
0.000126657
0.000128901
0.000153525
0.000278938
0.000242317
0.000217526
0.000197851
0.000179772
0.000164441
0.000149649
0.000138669
0.00013828
0.000155652
0.000290881
0.000253755
0.000235846
0.000219329
0.000200516
0.000184777
0.000169158
0.000155621
0.00015334
0.000167294
0.000286104
0.000265172
0.000256117
0.00024061
0.000224495
0.00021232
0.000195877
0.00017804
0.000175815
0.000200425
0.000286863
0.000292909
0.000280628
0.000267599
0.000260593
0.000255707
0.000240504
0.000207235
0.000200533
0.000214068
0.000329732
0.000310649
0.000267819
0.000241861
0.000213873
0.000186902
0.000161938
0.000146399
0.00014317
0.000152051
0.000219989
0.000217881
0.000200836
0.000180393
0.000156914
0.000135299
0.000123122
0.000120436
0.000125616
0.000153407
0.000183935
0.000164662
0.000149245
0.000134072
0.000119873
0.000110311
0.000107951
0.000109399
0.000119777
0.000161861
0.000179637
0.000155043
0.000135209
0.000121352
0.000111096
0.000105078
0.000104454
0.000106491
0.00011845
0.000169091
0.000194049
0.000167235
0.000143445
0.000127193
0.000115923
0.000108769
0.000106935
0.000108194
0.000118655
0.00016366
0.000222595
0.000196849
0.000169774
0.000149905
0.000135571
0.000124972
0.000118629
0.000116571
0.000121334
0.00015112
0.000256874
0.000230815
0.000200773
0.000179046
0.000162512
0.000149642
0.000139299
0.000129189
0.000128953
0.000143866
0.000295896
0.000265146
0.000233256
0.000212418
0.00019647
0.00018349
0.000171327
0.000152205
0.000142596
0.00014819
0.000333954
0.000292121
0.000265669
0.000249995
0.000238605
0.000229435
0.000217911
0.00019201
0.000166503
0.000161503
0.000361552
0.000315931
0.000300746
0.000293519
0.000290213
0.000291295
0.000283412
0.000256823
0.000208929
0.000186053
0.000399943
0.000345465
0.000304764
0.000272992
0.000224778
0.000178567
0.000158254
0.000156986
0.000174025
0.00024486
0.00029283
0.000256723
0.00022752
0.000198756
0.000163504
0.000141425
0.000135941
0.000140342
0.000174547
0.000275126
0.000254215
0.000222255
0.000190151
0.000159915
0.000137303
0.00012578
0.00012499
0.000131083
0.000166774
0.000260109
0.000221305
0.000186544
0.000159945
0.000141349
0.000127714
0.000120768
0.000121118
0.000126925
0.000153268
0.000225473
0.000209644
0.000177249
0.000155873
0.000140762
0.000130055
0.000123685
0.000123315
0.000126818
0.000143661
0.000195641
0.000223634
0.000195024
0.000175562
0.00016144
0.00015144
0.000142895
0.000138097
0.000137245
0.000144056
0.000177589
0.000258506
0.00023037
0.00021093
0.000196969
0.000186904
0.000177949
0.000169102
0.000157628
0.000156906
0.000175849
0.00030433
0.000272221
0.00025423
0.000242975
0.000235605
0.000229929
0.000218872
0.000195671
0.000178433
0.000185155
0.000357099
0.000319831
0.000305858
0.000298831
0.000297581
0.000297714
0.000288023
0.00025823
0.000214104
0.000207294
0.000410732
0.000370435
0.000360875
0.00036022
0.000369214
0.000384284
0.000380105
0.000349692
0.000274555
0.000245089
0.000521203
0.000436058
0.00038795
0.000326538
0.000263208
0.000234341
0.000230392
0.000239392
0.000287746
0.000408814
0.000390152
0.000338362
0.000291145
0.000243277
0.000209515
0.00019722
0.000199801
0.000221769
0.00029955
0.000447205
0.000380548
0.000306507
0.000246305
0.000207272
0.000184327
0.000179193
0.000185731
0.000213295
0.000295012
0.000431247
0.000362031
0.000276508
0.000226812
0.000195933
0.000177817
0.000174831
0.000182333
0.00020977
0.000285878
0.000404249
0.000331141
0.000265578
0.000224385
0.000197869
0.000183672
0.00018141
0.000187221
0.000209364
0.000274727
0.00038517
0.000322691
0.000274474
0.000244137
0.000223583
0.000212226
0.000208263
0.000209167
0.000217984
0.000266099
0.000373372
0.00035
0.000316153
0.000288045
0.000270852
0.000262619
0.000258049
0.00025244
0.000245454
0.000269287
0.00036509
0.000406899
0.00037277
0.000348592
0.000339969
0.000338325
0.00033609
0.000326159
0.000297471
0.000293981
0.000359612
0.000485525
0.000446169
0.000430866
0.000430525
0.000436575
0.000442106
0.000434292
0.00039567
0.000346634
0.000378569
0.00058167
0.000534421
0.000526305
0.000532012
0.000549338
0.000572524
0.000583686
0.000554239
0.000472264
0.000462083
0.000619294
0.000520593
0.000442263
0.00037468
0.000339814
0.000335492
0.000349349
0.000395217
0.000481843
0.000616545
0.000525942
0.00044734
0.000369633
0.000320734
0.000298091
0.000299186
0.000325079
0.000387591
0.000494431
0.000648858
0.000527119
0.000412239
0.000335095
0.00029615
0.000280259
0.000284296
0.000315497
0.000381416
0.000491093
0.000633465
0.000500259
0.000385445
0.000324235
0.000290003
0.000276674
0.000281552
0.000312629
0.000376342
0.000479806
0.000602021
0.000475479
0.000378218
0.000326931
0.000296983
0.000285604
0.000288811
0.000315006
0.000372354
0.000467805
0.000585889
0.000468794
0.000397446
0.000360963
0.000330249
0.00031547
0.000313503
0.000328289
0.00037103
0.000461214
0.00058124
0.000498978
0.00045428
0.000417948
0.000384303
0.000366232
0.0003618
0.000366333
0.000386731
0.000459909
0.000582843
0.000565783
0.00053119
0.000492283
0.000461606
0.000446979
0.000444267
0.000447268
0.000447891
0.000477996
0.000582449
0.000666991
0.000628712
0.00058805
0.000563854
0.000557686
0.000564055
0.00058003
0.000584712
0.000578949
0.000625529
0.000808798
0.000746053
0.000704898
0.000688899
0.000688718
0.000709566
0.000749473
0.000783799
0.000797112
0.000805898
0.000622555
0.00052769
0.00044102
0.000393362
0.000378212
0.000386741
0.000421102
0.000483208
0.000571892
0.000691866
0.000566772
0.000467716
0.000386075
0.000350017
0.000340722
0.000351712
0.000392072
0.000458528
0.000550069
0.000673409
0.00055068
0.000425049
0.000357439
0.000329626
0.000323036
0.000334254
0.000375043
0.000442679
0.000533961
0.000652913
0.000518033
0.000406086
0.000349674
0.000324163
0.000317781
0.000328049
0.000366574
0.00043214
0.000521962
0.000629602
0.000503052
0.000403279
0.000355631
0.000329553
0.000320929
0.000327886
0.000363762
0.000426334
0.000513939
0.000621013
0.000505763
0.000429433
0.000395832
0.000359452
0.000342394
0.000341155
0.000368308
0.000425161
0.000512234
0.000624579
0.000541831
0.000488683
0.000457472
0.000411341
0.000383052
0.000377711
0.000394987
0.000439195
0.000515996
0.000631321
0.000604801
0.000570574
0.000532626
0.000480866
0.000453097
0.000448918
0.000467161
0.000499693
0.000547609
0.000641421
0.000702568
0.00067219
0.000620072
0.000571849
0.000556554
0.000562735
0.000597689
0.000639983
0.000671648
0.000715666
0.000847699
0.00079278
0.000725856
0.000691976
0.000686278
0.000707963
0.000761546
0.000831913
0.000887628
0.000902584
0.000351607
0.000329574
0.00030575
0.000293283
0.000291089
0.000291302
0.000292263
0.000303942
0.000330588
0.000365402
0.000337004
0.000300073
0.000276631
0.000269778
0.000271156
0.000272439
0.000274904
0.000290426
0.000314929
0.000347187
0.000330956
0.000283545
0.000265266
0.000258923
0.000257604
0.00025931
0.000268148
0.000286181
0.000309921
0.00033688
0.000318891
0.000276854
0.000261565
0.000255279
0.00025335
0.000255529
0.00026717
0.000285322
0.000306466
0.000323121
0.000313875
0.000275535
0.000263023
0.00025664
0.000253953
0.000255954
0.000267542
0.000282602
0.000300225
0.000317215
0.000314747
0.000285205
0.000279984
0.000269176
0.000260099
0.00025943
0.000268279
0.000281693
0.000300087
0.000319692
0.000329608
0.000306137
0.000310147
0.000294667
0.000271484
0.000267368
0.000272288
0.000285019
0.000303452
0.00032833
0.000361879
0.000331927
0.0003482
0.000323219
0.000288983
0.000280327
0.000284382
0.000297902
0.000313131
0.000339013
0.000403131
0.00037554
0.000385543
0.000346548
0.000312075
0.000303912
0.000310001
0.0003245
0.000337056
0.000354697
0.000447636
0.000435661
0.000397552
0.000360107
0.000335962
0.000328134
0.00032804
0.000335331
0.000348623
0.000363708
0.000154216
0.000155832
0.00015792
0.000157677
0.000147266
0.00013651
0.000133087
0.000136689
0.000139744
0.000142749
0.000150976
0.000145177
0.000141697
0.000142906
0.000137585
0.000128636
0.00012797
0.000131922
0.000136394
0.000140684
0.000149494
0.000137869
0.000133685
0.000131573
0.00012665
0.000123745
0.000124613
0.000129161
0.000133767
0.000136155
0.000144557
0.000132283
0.000127723
0.000124247
0.000121046
0.000120166
0.000121091
0.000124451
0.000128028
0.00012971
0.000140927
0.000129962
0.00012583
0.000122871
0.000120835
0.000119965
0.000119648
0.000120511
0.000122664
0.000125667
0.000139662
0.000129643
0.000126537
0.00012415
0.000122359
0.000121388
0.000120669
0.000120805
0.000123176
0.000126769
0.0001418
0.000133948
0.000133287
0.000129126
0.000125796
0.000125249
0.000125165
0.000125866
0.000128485
0.000131968
0.000149754
0.000140774
0.000144331
0.000138046
0.000130022
0.000128048
0.000129251
0.000130645
0.000132996
0.000135695
0.000163469
0.000152254
0.000151943
0.000143379
0.000135331
0.000130368
0.000131576
0.000133698
0.000135691
0.000137838
0.000176267
0.000168788
0.000153572
0.000144779
0.000138513
0.000133644
0.000134651
0.000136557
0.000138063
0.000140129
8.38037e-05
8.59903e-05
8.92993e-05
8.98165e-05
7.75998e-05
7.39531e-05
7.48976e-05
7.62868e-05
7.66345e-05
7.75872e-05
8.45353e-05
8.40976e-05
8.43475e-05
8.58997e-05
7.46658e-05
7.10785e-05
7.17988e-05
7.33756e-05
7.45378e-05
7.69694e-05
8.65239e-05
8.40797e-05
8.26548e-05
7.92286e-05
7.03928e-05
6.87955e-05
6.97574e-05
7.18867e-05
7.39128e-05
7.58892e-05
8.49324e-05
8.01136e-05
7.78246e-05
7.27194e-05
6.8042e-05
6.71953e-05
6.79777e-05
7.03902e-05
7.2839e-05
7.4961e-05
7.94327e-05
7.56111e-05
7.33225e-05
6.98271e-05
6.7872e-05
6.73309e-05
6.73116e-05
6.84668e-05
7.02825e-05
7.21878e-05
7.75152e-05
7.35926e-05
7.14349e-05
6.94972e-05
6.84825e-05
6.80151e-05
6.78823e-05
6.8653e-05
7.00164e-05
7.1453e-05
7.74644e-05
7.43288e-05
7.29879e-05
7.15603e-05
7.0894e-05
7.05817e-05
7.05142e-05
7.12209e-05
7.27803e-05
7.44503e-05
7.98846e-05
7.82612e-05
7.76908e-05
7.49621e-05
7.35926e-05
7.3128e-05
7.3004e-05
7.34053e-05
7.43424e-05
7.59302e-05
8.49365e-05
8.57722e-05
8.39525e-05
7.9992e-05
7.61115e-05
7.46712e-05
7.44668e-05
7.4608e-05
7.50481e-05
7.64408e-05
9.44105e-05
9.30422e-05
8.61465e-05
8.22183e-05
8.02578e-05
7.65141e-05
7.6618e-05
7.7298e-05
7.75943e-05
7.7878e-05
5.69687e-05
5.64825e-05
5.68098e-05
5.85845e-05
5.53504e-05
5.17029e-05
5.25183e-05
5.42446e-05
5.47516e-05
5.53637e-05
5.69872e-05
5.58337e-05
5.62736e-05
5.75588e-05
5.2628e-05
4.99042e-05
5.03399e-05
5.19825e-05
5.29e-05
5.4743e-05
5.71702e-05
5.59977e-05
5.6049e-05
5.60158e-05
5.05725e-05
4.84869e-05
4.87794e-05
5.04675e-05
5.21123e-05
5.41896e-05
5.77682e-05
5.64976e-05
5.57891e-05
5.41542e-05
4.91911e-05
4.75705e-05
4.7596e-05
4.87894e-05
5.06713e-05
5.29559e-05
5.89405e-05
5.65918e-05
5.49979e-05
5.2113e-05
4.86565e-05
4.76734e-05
4.7573e-05
4.80607e-05
4.92426e-05
5.09568e-05
5.78042e-05
5.51787e-05
5.27931e-05
5.02113e-05
4.85065e-05
4.79046e-05
4.77851e-05
4.83044e-05
4.92694e-05
5.06561e-05
5.51267e-05
5.31322e-05
5.15851e-05
5.00513e-05
4.91163e-05
4.87675e-05
4.86756e-05
4.90614e-05
5.00124e-05
5.14258e-05
5.55168e-05
5.45729e-05
5.33868e-05
5.23064e-05
5.15527e-05
5.04358e-05
4.9999e-05
5.01435e-05
5.14104e-05
5.3286e-05
5.94963e-05
5.95337e-05
5.7262e-05
5.53495e-05
5.38086e-05
5.19043e-05
5.1282e-05
5.16579e-05
5.2651e-05
5.4086e-05
6.68309e-05
6.36077e-05
6.03629e-05
5.84288e-05
5.70006e-05
5.39449e-05
5.30883e-05
5.39025e-05
5.45594e-05
5.48903e-05
4.60105e-05
4.52445e-05
4.4292e-05
4.39253e-05
4.2805e-05
4.14675e-05
4.20076e-05
4.36042e-05
4.43448e-05
4.49546e-05
4.56614e-05
4.43596e-05
4.34006e-05
4.33052e-05
4.19023e-05
4.05572e-05
4.07531e-05
4.19409e-05
4.29719e-05
4.4327e-05
4.55421e-05
4.38765e-05
4.29058e-05
4.28532e-05
4.11367e-05
3.97999e-05
3.97857e-05
4.06457e-05
4.18383e-05
4.34235e-05
4.52016e-05
4.37047e-05
4.29548e-05
4.2624e-05
4.05985e-05
3.9415e-05
3.92584e-05
3.96105e-05
4.04786e-05
4.16322e-05
4.5235e-05
4.39443e-05
4.34212e-05
4.24073e-05
4.04046e-05
3.96007e-05
3.94381e-05
3.95203e-05
4.00447e-05
4.0845e-05
4.61997e-05
4.4853e-05
4.34775e-05
4.19045e-05
4.03922e-05
3.98294e-05
3.96658e-05
3.97621e-05
4.02207e-05
4.09114e-05
4.60817e-05
4.44656e-05
4.29337e-05
4.14896e-05
4.06311e-05
4.02851e-05
4.01195e-05
4.00835e-05
4.05275e-05
4.14065e-05
4.54403e-05
4.44066e-05
4.31267e-05
4.24097e-05
4.20971e-05
4.15102e-05
4.08467e-05
4.07508e-05
4.15188e-05
4.28352e-05
4.75937e-05
4.65663e-05
4.53802e-05
4.47398e-05
4.41304e-05
4.26298e-05
4.16778e-05
4.17489e-05
4.26949e-05
4.37763e-05
5.19541e-05
5.00409e-05
4.84659e-05
4.70147e-05
4.62098e-05
4.45835e-05
4.27289e-05
4.30676e-05
4.41133e-05
4.45537e-05
4.09375e-05
4.02229e-05
3.94378e-05
3.8696e-05
3.80139e-05
3.7576e-05
3.79076e-05
3.86572e-05
3.92968e-05
3.98994e-05
4.07709e-05
3.98139e-05
3.899e-05
3.82564e-05
3.76045e-05
3.71129e-05
3.71934e-05
3.77056e-05
3.83375e-05
3.92357e-05
4.05849e-05
3.9517e-05
3.85856e-05
3.79216e-05
3.72267e-05
3.66968e-05
3.66573e-05
3.70237e-05
3.75914e-05
3.84595e-05
4.03968e-05
3.93245e-05
3.84242e-05
3.77723e-05
3.69652e-05
3.64772e-05
3.63701e-05
3.65138e-05
3.69422e-05
3.75325e-05
4.0392e-05
3.93464e-05
3.85101e-05
3.78079e-05
3.69691e-05
3.65741e-05
3.64654e-05
3.64825e-05
3.67552e-05
3.71378e-05
4.09935e-05
3.98721e-05
3.88636e-05
3.7833e-05
3.70747e-05
3.67791e-05
3.66732e-05
3.66707e-05
3.68972e-05
3.72854e-05
4.1188e-05
4.00546e-05
3.88582e-05
3.78998e-05
3.74351e-05
3.72867e-05
3.70618e-05
3.69924e-05
3.72471e-05
3.7794e-05
4.08858e-05
4.00735e-05
3.90249e-05
3.85585e-05
3.85185e-05
3.82414e-05
3.76539e-05
3.75134e-05
3.78354e-05
3.84695e-05
4.31748e-05
4.16247e-05
4.05143e-05
4.01643e-05
3.99475e-05
3.93149e-05
3.83343e-05
3.81493e-05
3.85138e-05
3.91198e-05
4.43682e-05
4.32814e-05
4.23438e-05
4.15799e-05
4.10327e-05
4.03886e-05
3.91246e-05
3.88974e-05
3.93757e-05
3.97694e-05
4.03649e-05
3.97033e-05
3.92012e-05
3.85463e-05
3.77686e-05
3.7331e-05
3.76509e-05
3.82805e-05
3.8643e-05
3.90994e-05
4.03955e-05
3.94078e-05
3.87368e-05
3.80848e-05
3.73693e-05
3.69071e-05
3.70222e-05
3.7406e-05
3.78369e-05
3.85954e-05
4.03901e-05
3.93408e-05
3.85038e-05
3.77545e-05
3.70064e-05
3.65611e-05
3.65476e-05
3.68367e-05
3.73132e-05
3.81333e-05
4.0344e-05
3.93198e-05
3.83342e-05
3.74527e-05
3.67139e-05
3.63355e-05
3.62592e-05
3.64097e-05
3.67814e-05
3.73475e-05
4.04006e-05
3.92521e-05
3.81762e-05
3.73113e-05
3.66576e-05
3.63349e-05
3.6238e-05
3.62803e-05
3.65143e-05
3.68741e-05
4.0484e-05
3.92682e-05
3.81853e-05
3.73389e-05
3.67898e-05
3.65488e-05
3.64594e-05
3.64828e-05
3.67139e-05
3.70717e-05
4.06431e-05
3.94045e-05
3.83446e-05
3.75811e-05
3.72165e-05
3.7029e-05
3.68973e-05
3.6905e-05
3.71849e-05
3.76669e-05
4.12994e-05
3.99385e-05
3.88752e-05
3.82801e-05
3.8071e-05
3.78024e-05
3.748e-05
3.74411e-05
3.76829e-05
3.82203e-05
4.28831e-05
4.16507e-05
4.0525e-05
3.97854e-05
3.93011e-05
3.87849e-05
3.8143e-05
3.80698e-05
3.82306e-05
3.86017e-05
4.3295e-05
4.24224e-05
4.17051e-05
4.09929e-05
4.03e-05
3.96103e-05
3.88258e-05
3.88463e-05
3.90541e-05
3.91912e-05
0.00247321
0.00179049
0.00224288
0.00220547
0.000554832
0.000555313
0.0022076
0.00224572
0.00179321
0.00247482
0.00179188
0.000558822
0.000358848
0.000294302
7.31037e-05
7.31612e-05
0.00029459
0.000359342
0.000559918
0.00179706
0.00224506
0.000359135
6.5254e-05
2.84074e-05
6.89015e-06
6.89543e-06
2.8441e-05
6.54442e-05
0.000360546
0.00225204
0.00220735
0.000294559
2.84294e-05
3.39003e-06
9.54518e-07
9.54815e-07
3.40056e-06
2.85871e-05
0.000295937
0.00221411
0.000555284
7.31722e-05
6.89661e-06
9.54641e-07
5.9563e-07
5.95681e-07
9.5703e-07
6.93858e-06
7.35972e-05
0.000557689
0.000555659
7.32409e-05
6.90507e-06
9.55494e-07
5.95705e-07
5.95755e-07
9.57365e-07
6.93945e-06
7.35978e-05
0.000557681
0.00221202
0.000295605
2.85677e-05
3.40923e-06
9.573e-07
9.57385e-07
3.41123e-06
2.86032e-05
0.00029593
0.00221338
0.00225187
0.000360737
6.56337e-05
2.86008e-05
6.93887e-06
6.93926e-06
2.86016e-05
6.56336e-05
0.000360692
0.00225155
0.00179779
0.000561111
0.000360737
0.000295907
7.35805e-05
7.35822e-05
0.000295885
0.000360667
0.000560968
0.00179723
0.00248041
0.0017975
0.00225169
0.00221322
0.00055745
0.000557542
0.00221332
0.00225136
0.0017971
0.00247973
0.000487935
0.00030857
0.000377145
0.000368227
9.02966e-05
9.03713e-05
0.00036857
0.000377615
0.000309041
0.000488384
0.000308751
8.87987e-05
5.62643e-05
4.6211e-05
1.1419e-05