/*--------------------------------*- C++ -*----------------------------------*\
  =========                 |
  \\      /  F ield         | OpenFOAM: The Open Source CFD Toolbox
   \\    /   O peration     | Website:  https://openfoam.org
    \\  /    A nd           | Version:  9
     \\/     M anipulation  |
\*---------------------------------------------------------------------------*/
FoamFile
{
    format      ascii;
    class       volScalarField;
    location    "1";
    object      f2.gas;
}
// * * * * * * * * * * * * * * * * * * * * * * * * * * * * * * * * * * * * * //

dimensions      [0 0 0 0 0 0 0];

internalField   nonuniform List<scalar> 
137980
(
0.00675649
0.00820574
0.0051624
0.0047846
0.00692547
0.00694624
0.00630542
0.0066359
0.00743057
0.0084892
0.00870922
0.0102268
0.00844286
0.00883302
0.0132261
0.0103941
0.00925145
0.0104716
0.011582
0.0102349
0.00511361
0.00749475
0.0137308
0.0146538
0.0146823
0.0137405
0.0120373
0.0105428
0.00822615
0.00769606
0.00480706
0.00654378
0.00994015
0.0119011
0.0132593
0.0137606
0.0114483
0.00890462
0.00555026
0.0045209
0.00456026
0.00649588
0.00874988
0.010569
0.0115753
0.0109608
0.0108366
0.0102636
0.00734408
0.0053495
0.00395054
0.00451872
0.00696968
0.00914978
0.00827653
0.00900762
0.0103701
0.0105218
0.00746293
0.00639272
0.00358888
0.00482801
0.00897299
0.0075731
0.00727737
0.00845612
0.0104935
0.010237
0.006969
0.00645641
0.00435108
0.00693889
0.0073033
0.00565415
0.00668954
0.00760422
0.0120621
0.0118372
0.0074435
0.00559379
0.0046519
0.00621341
0.00523047
0.00461142
0.00568154
0.00524822
0.00570945
0.0119366
0.00972554
0.00489203
0.0052133
0.00581159
0.00444879
0.00379398
0.00433495
0.00440924
0.00356213
0.0052265
0.00871195
0.00542495
0.00220749
0.00317287
0.00314755
0.00274104
0.00274925
0.00273645
0.0025871
0.00251166
0.00244702
0.00226404
0.00295046
0.00327459
0.00377599
0.00391087
0.00368761
0.00320829
0.00310617
0.00313524
0.00284871
0.00246761
0.00253143
0.00272266
0.00381803
0.00441457
0.00416297
0.00376027
0.00351837
0.00328752
0.00302601
0.00288634
0.00251246
0.00262019
0.00306188
0.0038861
0.00387605
0.00367401
0.00326195
0.00297747
0.00272298
0.00254374
0.00251543
0.00261218
0.00294423
0.00365982
0.00352333
0.00327686
0.00309554
0.00285082
0.00255504
0.00233248
0.00246902
0.00254647
0.00285873
0.00331439
0.00306456
0.00301044
0.00288922
0.00283954
0.00257399
0.00239385
0.00252497
0.00264561
0.0032913
0.00301473
0.00297425
0.00295464
0.00301695
0.0028689
0.00252326
0.00243127
0.00283136
0.00301089
0.00307928
0.00291332
0.0029797
0.00277833
0.00314435
0.00325424
0.00291902
0.00253417
0.00284174
0.00290787
0.00277628
0.00272737
0.00283926
0.00275892
0.00244204
0.00288945
0.00292501
0.00265142
0.00257068
0.00248288
0.00241488
0.00248374
0.00264216
0.0026753
0.00238009
0.00252103
0.00269164
0.00256173
0.00171909
0.00179316
0.00200604
0.00201458
0.00196465
0.00187774
0.00182843
0.00183341
0.00194722
0.00189733
0.00190801
0.0021385
0.00217495
0.00218598
0.0021671
0.00208795
0.00203832
0.00205021
0.00209289
0.00209963
0.00220764
0.00223123
0.00223304
0.00224543
0.0022106
0.00210966
0.00207919
0.00209309
0.00210711
0.00204327
0.0022043
0.00225142
0.00224163
0.00225936
0.00215597
0.00210992
0.00208803
0.00208388
0.00210444
0.00202004
0.00232775
0.00226639
0.00217913
0.0022104
0.00218246
0.00214792
0.00210717
0.00210465
0.00213686
0.00205884
0.00220121
0.00222993
0.00226454
0.00226315
0.00220309
0.0021505
0.00214068
0.00215645
0.00215716
0.00215064
0.00220994
0.00229848
0.00234146
0.00225501
0.00212939
0.00211638
0.00215131
0.00216818
0.00214868
0.00215085
0.00230541
0.00240065
0.00231489
0.00208306
0.00206546
0.00210544
0.00216587
0.00215495
0.00207589
0.00208502
0.00235507
0.00227379
0.00193947
0.00201437
0.0020426
0.00213806
0.00212332
0.00205524
0.00184671
0.00187484
0.00196559
0.0017726
0.00181923
0.00188308
0.00194099
0.00210696
0.00203166
0.00178565
0.00158412
0.00156727
0.00150715
0.00150385
0.00150289
0.00154232
0.00156051
0.00156505
0.00168069
0.00195179
0.00202859
0.0020416
0.00158493
0.00154909
0.00151681
0.00151782
0.00150935
0.00175182
0.00199244
0.00206998
0.00206349
0.002051
0.0015791
0.00152265
0.00150409
0.001533
0.00199301
0.00212165
0.00212653
0.00210851
0.00206825
0.00204856
0.00161407
0.00158577
0.00166854
0.00211454
0.00216862
0.00216175
0.00213331
0.00206265
0.00199845
0.00199225
0.00190853
0.00194589
0.0021133
0.00218962
0.00218003
0.00213711
0.00202673
0.00191878
0.00190016
0.00191678
0.00202109
0.00208234
0.00222217
0.00221139
0.00215042
0.0019936
0.00187124
0.00185676
0.00187321
0.00191132
0.00218871
0.00231798
0.0023051
0.00218934
0.00193167
0.00181226
0.00181389
0.001839
0.0018961
0.00186843
0.00245559
0.00243625
0.00223792
0.00181696
0.00175462
0.00176449
0.00180545
0.00193187
0.001901
0.0015931
0.00247356
0.00224024
0.00171424
0.00169968
0.0017429
0.00180532
0.00196523
0.00200184
0.00169852
0.00150282
0.00222609
0.00148908
0.00164476
0.00174708
0.00183272
0.00194892
0.00204377
0.00181128
0.00169108
0.00157837
0.00164261
0.00160562
0.001526
0.00153779
0.00159243
0.00171051
0.00180266
0.00190165
0.00191014
0.00193497
0.00175025
0.00174713
0.00171893
0.00177074
0.00181523
0.00189481
0.00197752
0.00196421
0.00191855
0.00191328
0.001804
0.00180247
0.00177208
0.00174216
0.00195448
0.0020478
0.00203155
0.00197396
0.00186415
0.00185271
0.00188086
0.00171113
0.00176787
0.00195059
0.00207341
0.00206843
0.0020231
0.00188416
0.00180721
0.0017891
0.00210018
0.00190254
0.00189392
0.00202962
0.00210334
0.00207513
0.00195565
0.00182771
0.00178577
0.00176236
0.00227246
0.00211103
0.00214965
0.00219266
0.0021448
0.0020147
0.00183058
0.00178398
0.00176641
0.00170276
0.00249009
0.0024187
0.00236672
0.00223025
0.00195876
0.00177162
0.00174868
0.00176586
0.00173032
0.00153687
0.00252104
0.00247072
0.00222002
0.00170482
0.00166291
0.00167899
0.00172999
0.00177145
0.0016414
0.00139935
0.00244795
0.00209138
0.00140433
0.00148054
0.00163463
0.00175478
0.00179665
0.00172397
0.00153049
0.00135301
0.0022872
0.00110063
0.00119925
0.00155157
0.00172982
0.00176956
0.00173979
0.00163856
0.00148015
0.00133376
0.000770945
0.000802877
0.000867987
0.00106295
0.00154779
0.00177375
0.00182699
0.00186378
0.00187769
0.00187377
0.000771557
0.000841136
0.00102977
0.00151779
0.00177813
0.0018585
0.00190008
0.00191896
0.00190179
0.00184485
0.000819904
0.000916307
0.00126558
0.00166907
0.00183913
0.00193579
0.00197372
0.00196803
0.00194124
0.00183627
0.000898545
0.00105956
0.00144475
0.00174285
0.00191482
0.00198897
0.00202088
0.00201801
0.00196973
0.00182642
0.00123503
0.001495
0.00176699
0.00197651
0.00208577
0.00210538
0.00209044
0.00205015
0.00195292
0.00172209
0.00221582
0.00222764
0.00222902
0.00222708
0.0022127
0.00216277
0.0021018
0.00200944
0.00178664
0.00152727
0.00235359
0.00233304
0.00229885
0.00226063
0.00218723
0.0020745
0.00196998
0.00175774
0.00146414
0.00128842
0.00216756
0.00214554
0.00208937
0.00197792
0.00183301
0.00171858
0.00151883
0.00132395
0.00121372
0.00114628
0.00181298
0.00176279
0.00162343
0.00144871
0.00134697
0.00125296
0.00118591
0.00113003
0.00109563
0.00107946
0.00119883
0.000935193
0.00091353
0.000971973
0.00106817
0.00102077
0.000999197
0.00102071
0.00104962
0.00105804
0.00097892
0.000965532
0.000944422
0.000865075
0.000859603
0.000997224
0.00148525
0.00177149
0.00179597
0.00178605
0.000888147
0.00093558
0.000923888
0.000857278
0.000866305
0.00102354
0.00146579
0.0017393
0.00178967
0.00177697
0.00061289
0.000756811
0.00076154
0.000757081
0.000822643
0.00109289
0.00147264
0.00170466
0.00174896
0.00172972
0.000573826
0.000615737
0.000636291
0.000684975
0.000835004
0.00110528
0.0013444
0.00152508
0.00160076
0.00160385
0.000587192
0.000595803
0.000613985
0.000651446
0.000743931
0.000953933
0.00117999
0.00134381
0.00142532
0.00145079
0.000745248
0.000744348
0.000765984
0.000827511
0.000987743
0.00115668
0.00126867
0.00133623
0.00136967
0.00137549
0.00128003
0.00121291
0.00122197
0.00125939
0.00131266
0.00133869
0.00133926
0.00134057
0.0013287
0.00131184
0.00152085
0.00146219
0.00144056
0.00143301
0.0014109
0.00138968
0.00134377
0.00130872
0.00121987
0.00119128
0.00150424
0.00147566
0.00144116
0.00136911
0.00127948
0.00120198
0.00111631
0.00105925
0.000975166
0.000973356
0.00129901
0.00126347
0.00111062
0.00094891
0.000877898
0.000862396
0.000877224
0.000860818
0.000824726
0.000807328
0.000693404
0.000686016
0.000550604
0.000557523
0.000627047
0.000966746
0.00139964
0.00148783
0.00147261
0.00151934
0.000667374
0.000671539
0.000607922
0.000578037
0.000594303
0.000802922
0.00128915
0.00145756
0.00140952
0.0014468
0.000572466
0.000632575
0.000613737
0.000576453
0.000583118
0.000752733
0.00119928
0.0013586
0.00135784
0.00129567
0.000507386
0.000572219
0.000575079
0.000548841
0.000557234
0.000738645
0.00110071
0.00118529
0.00115632
0.00104509
0.000418761
0.000469712
0.000482854
0.000490399
0.000537733
0.000769693
0.000955922
0.000950524
0.00087321
0.000860035
0.000450548
0.000435424
0.000439956
0.000457198
0.000518636
0.00068321
0.000735699
0.00072188
0.000754551
0.00082816
0.000578051
0.000484969
0.000458866
0.000465339
0.00049054
0.000520734
0.000575488
0.00062468
0.00074277
0.000825655
0.000816315
0.000683096
0.000570513
0.000524624
0.000525744
0.000536005
0.000558005
0.000611402
0.000746452
0.00080567
0.000931198
0.000860544
0.000791781
0.000728371
0.000677376
0.000652823
0.000657936
0.000681774
0.000749859
0.000792406
0.000944222
0.000923312
0.000895779
0.000858351
0.000828497
0.000790054
0.000768077
0.000770207
0.000783851
0.000789759
0.000373393
0.000318559
0.000306148
0.000334819
0.000392524
0.000464865
0.000509021
0.00052175
0.000658703
0.000749304
0.000389755
0.000350336
0.000305445
0.000326956
0.000376256
0.000425843
0.000450895
0.000426733
0.000418732
0.000521918
0.000380219
0.00035034
0.000314253
0.000327179
0.000368895
0.000399835
0.000405276
0.0003713
0.000356782
0.000397875
0.00035356
0.000327122
0.000315656
0.000325197
0.000347945
0.000351924
0.00032435
0.000308481
0.000328399
0.000363342
0.000332978
0.00031979
0.000316576
0.000323263
0.000323787
0.000307429
0.000295689
0.000294742
0.000336563
0.000374375
0.000369144
0.000352592
0.000340206
0.000332687
0.000321796
0.000303002
0.00029879
0.000318669
0.00038348
0.00043885
0.000455822
0.000410084
0.000390099
0.000378262
0.000360353
0.000332911
0.000323937
0.000353941
0.000424218
0.000511765
0.000599538
0.000516883
0.000450905
0.000420697
0.00041287
0.000380496
0.000353377
0.000391673
0.00046623
0.000546309
0.000686499
0.000640671
0.000573078
0.000498493
0.000453714
0.000432651
0.000383639
0.000429838
0.000481864
0.000548892
0.000744411
0.000704229
0.000672943
0.000614534
0.000529001
0.000464566
0.000428138
0.000452179
0.000483147
0.000524193
0.000405428
0.000303932
0.000267179
0.000229518
0.000229403
0.000238097
0.000230977
0.000214878
0.000217153
0.00023033
0.000390493
0.000309685
0.000247243
0.00021969
0.000225467
0.000235598
0.000230924
0.000212488
0.000213543
0.000227148
0.000352511
0.00031813
0.000248452
0.000226381
0.000230679
0.000236166
0.000230736
0.000213469
0.000214496
0.000228056
0.000311774
0.000294874
0.000249762
0.00023906
0.000240477
0.000239548
0.00022873
0.000216293
0.00022063
0.000236511
0.0003266
0.000297566
0.000268493
0.000263819
0.000258755
0.000249649
0.000231851
0.000224865
0.000230293
0.000247367
0.000478423
0.000388875
0.000337709
0.000314432
0.000292234
0.000273971
0.000249115
0.000237917
0.000242178
0.000264052
0.000596101
0.000543609
0.000482511
0.000430796
0.000383367
0.000340466
0.000290802
0.000258244
0.000257888
0.000283342
0.000637413
0.000610562
0.000575645
0.000519681
0.000462756
0.000419418
0.000358207
0.000293947
0.000277792
0.0003017
0.000709951
0.000675914
0.0006462
0.000618724
0.000559969
0.000510806
0.000448858
0.000348451
0.00029742
0.000313669
0.000711304
0.000681432
0.000646776
0.000626864
0.000588721
0.000546366
0.000509485
0.000425081
0.00033438
0.000323143
0.00040784
0.000366637
0.000299677
0.000231066
0.000194591
0.000184128
0.000180945
0.000181862
0.000186502
0.000196446
0.000334893
0.000284093
0.000223076
0.000192253
0.000180572
0.000176786
0.000175904
0.000178409
0.00018465
0.000198136
0.000265016
0.000227744
0.000198213
0.000184022
0.000179019
0.000178977
0.000179828
0.000186467
0.000194913
0.00020865
0.000257133
0.000224787
0.000205026
0.000199241
0.000196668
0.000195449
0.000197125
0.000204709
0.000210712
0.000223359
0.000350509
0.00029418
0.000261503
0.000244654
0.000234815
0.000226027
0.000225935
0.000228344
0.000231576
0.000239655
0.000481349
0.000411561
0.000356968
0.000322753
0.000300377
0.000280146
0.00026955
0.000261867
0.00025671
0.000259239
0.000585174
0.000518556
0.000455866
0.000400904
0.000365665
0.000334131
0.000315622
0.000299122
0.000282487
0.000282667
0.000637321
0.000574601
0.000515822
0.000459289
0.00040836
0.000359751
0.000335265
0.00031797
0.000302102
0.000304707
0.000616356
0.000560332
0.000505039
0.000452238
0.000406178
0.000359254
0.000338674
0.000324498
0.000314645
0.000328539
0.000535638
0.000492414
0.000453754
0.000417504
0.000382845
0.000354354
0.000342434
0.000330195
0.000325663
0.000350582
0.000396898
0.000339692
0.000276735
0.000232061
0.000209121
0.000192549
0.000180439
0.000177189
0.000179844
0.000187402
0.000279886
0.000246706
0.000212655
0.000190706
0.000178145
0.000169162
0.000162096
0.0001626
0.000167579
0.000182847
0.000243584
0.000212504
0.000191508
0.000179192
0.00017106
0.000165201
0.000158164
0.000158664
0.00016471
0.000185713
0.000242279
0.000214622
0.000196663
0.000189358
0.000185204
0.000178619
0.000163518
0.000160387
0.000167689
0.000196529
0.000278321
0.00024795
0.000229082
0.000215776
0.000206618
0.000193676
0.000175499
0.000167919
0.00017504
0.000209953
0.000328628
0.000295747
0.00026614
0.000243241
0.000227151
0.000211681
0.000192955
0.000179561
0.00018235
0.000215371
0.000375127
0.000330938
0.000299342
0.000274284
0.000251102
0.000231988
0.000213132
0.000195461
0.000194914
0.000217825
0.00039265
0.000346696
0.000322762
0.000300966
0.00027715
0.000257833
0.000239139
0.000218082
0.000215348
0.000233384
0.000389422
0.000362791
0.000348883
0.000326803
0.000305615
0.000291141
0.000273201
0.000248382
0.000246716
0.000279972
0.000393425
0.000397327
0.000377679
0.000358724
0.000349721
0.000344497
0.000329049
0.000288477
0.000280841
0.000300319
0.000457028
0.000428366
0.000371621
0.000336942
0.00029933
0.000262704
0.000229002
0.000208671
0.000207216
0.00022058
0.000308973
0.000304166
0.000280471
0.000253067
0.000220901
0.000191071
0.000174208
0.000172645
0.000181332
0.000220781
0.000259372
0.000231269
0.000208583
0.000187472
0.000168609
0.000155806
0.000153765
0.000156731
0.00017254
0.000230791
0.000252813
0.000218222
0.000190022
0.000170807
0.000156718
0.000148652
0.000148535
0.000152239
0.000169831
0.000239345
0.000273128
0.000236792
0.00020326
0.000180757
0.000165258
0.000155541
0.000153315
0.000155484
0.000170067
0.000231299
0.000311819
0.000277456
0.000240015
0.000213168
0.000193806
0.000180198
0.000170717
0.000168075
0.000174601
0.000214433
0.00035825
0.00032179
0.000280692
0.000251665
0.000229792
0.000213521
0.0002007
0.000185926
0.00018602
0.000206368
0.000408531
0.000363951
0.000320904
0.000293432
0.000273084
0.000256631
0.000244386
0.000217863
0.0002056
0.000213663
0.000454975
0.000394535
0.000360029
0.000339286
0.000324798
0.000314381
0.0003021
0.00027313
0.000239029
0.000233766
0.000484287
0.000424411
0.000403001
0.000392132
0.000386937
0.00038966
0.000382891
0.000357937
0.000297109
0.000269319
0.000575069
0.0004948
0.000437737
0.00039374
0.000328457
0.000263595
0.000236646
0.000237769
0.000265168
0.000367867
0.000427936
0.000373024
0.000330554
0.00028928
0.000239843
0.000208709
0.000202943
0.000211152
0.000262389
0.000404542
0.000368703
0.000321142
0.000274583
0.000231633
0.0002006
0.000184933
0.000185162
0.000195929
0.000249013
0.000382295
0.000321839
0.000269658
0.000230943
0.000204907
0.000186154
0.000176838
0.000178346
0.000188775
0.000228279
0.000332988
0.000304209
0.000256393
0.000225378
0.000204032
0.000189532
0.000181114
0.000181488
0.000188058
0.000214087
0.000290372
0.000323612
0.00028221
0.000254519
0.000234819
0.000221442
0.000210175
0.000204501
0.000204851
0.000215891
0.000264168
0.000373103
0.000331943
0.000303407
0.000283198
0.000268996
0.000258152
0.000247761
0.000233877
0.000234804
0.00026346
0.000437085
0.000387937
0.00036032
0.000342943
0.000332166
0.000325737
0.000314011
0.000287566
0.000265952
0.000277718
0.000506456
0.000449573
0.000426427
0.000413832
0.000411165
0.000413628
0.000405808
0.000377929
0.00031891
0.000312593
0.000572539
0.000514536
0.00049676
0.000492393
0.000507387
0.000531494
0.000530662
0.000499061
0.000406411
0.00037066
0.000824812
0.000689813
0.000613102
0.000519233
0.000424933
0.000382048
0.000380608
0.000398668
0.000476476
0.000663457
0.000624258
0.000537823
0.000462038
0.000388396
0.000337871
0.000320346
0.000326572
0.000364837
0.000487169
0.000706805
0.000602872
0.000485453
0.000390757
0.000330891
0.000296193
0.00028879
0.000300914
0.00034603
0.000471631
0.000676172
0.000571885
0.000436665
0.000358654
0.000311276
0.000283476
0.000279202
0.000292652
0.000336116
0.000452309
0.000630565
0.000521891
0.000418178
0.000353572
0.00031216
0.000290296
0.000287126
0.000297357
0.000332891
0.000432267
0.000599592
0.000509303
0.000432262
0.000384218
0.000351488
0.000333685
0.000327781
0.000330632
0.000346078
0.000418941
0.000581353
0.000551624
0.000496133
0.000448974
0.000419222
0.000405129
0.000398865
0.000393928
0.000387653
0.00042529
0.000570827
0.000639082
0.000579249
0.000535316
0.00051676
0.000511005
0.000509183
0.000499449
0.000465382
0.000465526
0.000567188
0.000754902
0.00068282
0.000650273
0.00064186
0.000646085
0.000655862
0.000651707
0.000609584
0.000548181
0.00060045
0.000889457
0.00080602
0.000783606
0.000782654
0.000802027
0.000837111
0.000862032
0.000838125
0.000738975
0.000732065
0.00105121
0.000879706
0.000747812
0.000636885
0.000581328
0.000577009
0.000604349
0.000685036
0.000829945
0.00105852
0.000891194
0.000753943
0.00062416
0.00054381
0.000506808
0.000509434
0.000554472
0.0006594
0.000833742
0.00108412
0.000880012
0.000689428
0.000562737
0.000498493
0.000471469
0.000478173
0.000529567
0.000637135
0.000812307
0.00104135
0.000828929
0.000640729
0.000541088
0.000484457
0.000461125
0.00046877
0.000518679
0.000619229
0.000783729
0.000980229
0.000788205
0.000627764
0.000543224
0.000492158
0.000471061
0.000475389
0.000516658
0.000607714
0.000758052
0.00094677
0.000781952
0.00066214
0.000599291
0.000545443
0.000517248
0.000512533
0.000535942
0.000605119
0.000747238
0.000936837
0.000838238
0.000757193
0.000689919
0.000629358
0.000595021
0.000586461
0.000595363
0.000631574
0.000750028
0.000946385
0.00095507
0.000883797
0.000808408
0.000749503
0.000719116
0.000712517
0.000720847
0.000730994
0.000787465
0.000957634
0.00112637
0.00104212
0.000959303
0.000906264
0.000887058
0.000892242
0.000921881
0.000943919
0.000954092
0.00104154
0.00136008
0.00123204
0.00114321
0.00109996
0.00108713
0.00111118
0.0011737
0.00124421
0.0012914
0.00133636
0.00108383
0.000912341
0.000762331
0.00067941
0.000652609
0.000667545
0.000728805
0.000838428
0.000995804
0.00121198
0.000976282
0.000803058
0.000664021
0.000599531
0.000581081
0.000600036
0.000668457
0.000782196
0.000939671
0.00115551
0.000934881
0.000722869
0.000608796
0.000558438
0.00054439
0.000562717
0.000629895
0.000742923
0.000897327
0.00110116
0.000872305
0.000685741
0.000591119
0.000544651
0.00053086
0.00054565
0.000607914
0.000715421
0.000864471
0.00104561
0.000846734
0.000679683
0.000598202
0.000549523
0.0005312
0.000541559
0.000598924
0.000699858
0.000842508
0.00102121
0.00085732
0.000727302
0.000665581
0.000599437
0.000565701
0.000562105
0.000605209
0.000697248
0.000838091
0.00102205
0.000928
0.000830128
0.000766317
0.000683864
0.000631713
0.000621196
0.000648973
0.00072275
0.000850219
0.00104149
0.00104715
0.000971615
0.000892456
0.000798072
0.000745484
0.000735512
0.000765483
0.00082379
0.000911514
0.00107327
0.00122713
0.00114826
0.00104068
0.000946499
0.000911013
0.000913056
0.000968029
0.0010444
0.00111432
0.00120954
0.00148914
0.00136048
0.0012219
0.00114281
0.0011155
0.00113364
0.00121397
0.00133235
0.0014453
0.00151566
0.000510536
0.000473902
0.000436125
0.00041688
0.000413081
0.000414803
0.000420631
0.000442651
0.00048613
0.000542542
0.000485042
0.000427862
0.000394677
0.000383579
0.000384614
0.000388306
0.000394227
0.00041992
0.000458541
0.000509001
0.000470784
0.000403717
0.000377872
0.000367868
0.000365538
0.000368902
0.000382812
0.000410371
0.000446222
0.000487503
0.000451156
0.000394492
0.0003721
0.000362154
0.000358963
0.0003626
0.000379826
0.000406408
0.000437132
0.000465188
0.000444236
0.000393471
0.00037565
0.000364566
0.000359593
0.000362525
0.000379635
0.000401398
0.000426549
0.000454864
0.000448438
0.000410934
0.000402477
0.000384608
0.000368655
0.000367171
0.000380206
0.000399842
0.000426063
0.000457239
0.000474106
0.000442509
0.000445183
0.000421734
0.000385177
0.000377879
0.000384558
0.000404399
0.000431933
0.000470714
0.000525614
0.000480202
0.000496721
0.000461384
0.000410998
0.000396373
0.000401152
0.000422304
0.000448308
0.000489555
0.000591318
0.000543332
0.000552788
0.000493091
0.000443573
0.000430996
0.000439281
0.000463374
0.000484857
0.00051666
0.000661144
0.000637659
0.00057743
0.00052009
0.000483194
0.000471588
0.000473363
0.000488735
0.000513665
0.000540872
0.000219163
0.000218984
0.000220171
0.000219206
0.000207393
0.000194998
0.000192421
0.000199538
0.000204705
0.00020992
0.000210907
0.000201699
0.00019703
0.00019846
0.000192999
0.000184358
0.000184832
0.000192485
0.000198992
0.000205714
0.000206212
0.000191206
0.000186112
0.000183978
0.000179328
0.000176535
0.000179748
0.000187903
0.000194554
0.000197779
0.000200137
0.000184869
0.000178378
0.000173854
0.000170655
0.000169962
0.000172773
0.000179327
0.000185271
0.000187596
0.000196678
0.000182572
0.000176224
0.000171738
0.000169312
0.00016847
0.000168949
0.000171398
0.000175604
0.000180795
0.000196069
0.000184076
0.000179468
0.000174669
0.000171949
0.000171018
0.000170741
0.00017209
0.00017648
0.000182525
0.000201568
0.000192689
0.000191652
0.000184591
0.000177916
0.000176749
0.00017724
0.000179815
0.00018477
0.000190656
0.000214245
0.000202886
0.000207938
0.000199975
0.000186512
0.000181571
0.000183358
0.000187255
0.000192643
0.000197379
0.000235432
0.00021822
0.00021951
0.000207645
0.000195704
0.000186927
0.000188942
0.000194271
0.000197594
0.000200904
0.000254218
0.000243522
0.000223097
0.000210408
0.000200893
0.000192911
0.000194888
0.000198777
0.000201126
0.000204945
0.000120725
0.000122894
0.000126516
0.000127094
0.00011122
0.000106654
0.000108571
0.000110465
0.000111074
0.000112792
0.000120603
0.000119056
0.000119059
0.000120909
0.000107025
0.000102631
0.000104387
0.000106699
0.000108243
0.000111643
0.000122134
0.000117994
0.000116102
0.000112059
0.000101076
9.92034e-05
0.000101653
0.000104821
0.000107202
0.000109867
0.00011811
0.000112534
0.00010975
0.000103292
9.72351e-05
9.62381e-05
9.84274e-05
0.000102764
0.000105746
0.0001086
0.000111596
0.000106672
0.000103446
9.87884e-05
9.6206e-05
9.55444e-05
9.59135e-05
9.83102e-05
0.000101441
0.000104299
0.000109436
0.00010409
0.000100893
9.83762e-05
9.7179e-05
9.67284e-05
9.67723e-05
9.82241e-05
0.000100396
0.000102625
0.000110203
0.000105797
0.000103678
0.000101779
0.000101068
0.000100886
0.000101444
0.000103133
0.000105474
0.000107796
0.000114948
0.000112925
0.000112096
0.000107482
0.000105435
0.000105146
0.00010586
0.000106665
0.000107773
0.000109887
0.000122176
0.000123537
0.000121519
0.000116007
0.000109683
0.000107774
0.000108142
0.000108251
0.000108789
0.000110609
0.000134945
0.000133644
0.000124531
0.0001191
0.000116509
0.000110193
0.000111007
0.000111871
0.000112268
0.000112908
8.18919e-05
8.10435e-05
8.14457e-05
8.37096e-05
7.86869e-05
7.35144e-05
7.53212e-05
7.7732e-05
7.8464e-05
7.95338e-05
8.19732e-05
8.03085e-05
8.06421e-05
8.18167e-05
7.46042e-05
7.08819e-05
7.22132e-05
7.48186e-05
7.59875e-05
7.85585e-05
8.22224e-05
8.01906e-05
7.97e-05
7.93977e-05
7.15137e-05
6.86492e-05
6.96836e-05
7.30203e-05
7.49498e-05
7.76664e-05
8.27958e-05
8.04485e-05
7.91171e-05
7.67475e-05
6.94425e-05
6.69906e-05
6.72684e-05
6.99102e-05
7.30613e-05
7.61206e-05
8.35608e-05
8.01929e-05
7.779e-05
7.37515e-05
6.84272e-05
6.68599e-05
6.67414e-05
6.78388e-05
6.99341e-05
7.26333e-05
8.14241e-05
7.77109e-05
7.433e-05
7.05926e-05
6.80347e-05
6.71614e-05
6.70542e-05
6.80864e-05
6.96169e-05
7.17363e-05
7.76113e-05
7.47783e-05
7.24472e-05
7.02792e-05
6.90134e-05
6.86224e-05
6.86453e-05
6.94958e-05
7.10881e-05
7.33597e-05
7.88699e-05
7.75263e-05
7.54168e-05
7.37621e-05
7.26995e-05
7.14577e-05
7.10361e-05
7.19578e-05
7.40082e-05
7.64558e-05
8.53666e-05
8.57719e-05
8.25378e-05
7.93796e-05
7.62759e-05
7.38995e-05
7.33406e-05
7.45294e-05
7.57418e-05
7.75205e-05
9.55855e-05
9.14392e-05
8.67251e-05
8.41081e-05
8.18602e-05
7.67817e-05
7.60159e-05
7.75663e-05
7.82947e-05
7.88455e-05
6.56754e-05
6.44026e-05
6.3005e-05
6.22427e-05
6.02009e-05
5.82357e-05
5.97048e-05
6.21762e-05
6.31909e-05
6.4142e-05
6.519e-05
6.33217e-05
6.18636e-05
6.12602e-05
5.87849e-05
5.6811e-05
5.75999e-05
6.00259e-05
6.13835e-05
6.31626e-05
6.5064e-05
6.28113e-05
6.08749e-05
6.04001e-05
5.75624e-05
5.55765e-05
5.57978e-05
5.783e-05
5.98464e-05
6.19323e-05
6.45535e-05
6.2111e-05
6.07251e-05
5.99937e-05
5.67627e-05
5.48422e-05
5.46639e-05
5.55688e-05
5.71973e-05
5.91104e-05
6.4483e-05
6.22977e-05
6.11861e-05
5.96321e-05
5.64118e-05
5.50478e-05
5.4826e-05
5.51107e-05
5.6015e-05
5.72929e-05
6.53068e-05
6.31904e-05
6.11581e-05
5.87239e-05
5.62537e-05
5.53894e-05
5.51784e-05
5.54737e-05
5.62082e-05
5.73002e-05
6.48962e-05
6.23671e-05
6.00937e-05
5.78311e-05
5.65984e-05
5.613e-05
5.59663e-05
5.60343e-05
5.69267e-05
5.84634e-05
6.386e-05
6.22961e-05
6.03288e-05
5.92917e-05
5.88641e-05
5.81341e-05
5.73478e-05
5.73716e-05
5.91131e-05
6.11389e-05
6.73244e-05
6.60645e-05
6.41486e-05
6.32505e-05
6.23759e-05
5.99626e-05
5.87484e-05
5.92849e-05
6.1098e-05
6.23955e-05
7.44049e-05
7.168e-05
6.93957e-05
6.72436e-05
6.58774e-05
6.3073e-05
6.03743e-05
6.14334e-05
6.29229e-05
6.35509e-05
5.82426e-05
5.71233e-05
5.58804e-05
5.45614e-05
5.30925e-05
5.23813e-05
5.33287e-05
5.48309e-05
5.57988e-05
5.67343e-05
5.80125e-05
5.65071e-05
5.51408e-05
5.36887e-05
5.23824e-05
5.1616e-05
5.20414e-05
5.3159e-05
5.42166e-05
5.57054e-05
5.77384e-05
5.5977e-05
5.42721e-05
5.29871e-05
5.17128e-05
5.09466e-05
5.10028e-05
5.19056e-05
5.29461e-05
5.44866e-05
5.71581e-05
5.52881e-05
5.37317e-05
5.26168e-05
5.12545e-05
5.05026e-05
5.03771e-05
5.07851e-05
5.15638e-05
5.26062e-05
5.69945e-05
5.52311e-05
5.38154e-05
5.26252e-05
5.12129e-05
5.06134e-05
5.04645e-05
5.05793e-05
5.10342e-05
5.1658e-05
5.76751e-05
5.58598e-05
5.42373e-05
5.25731e-05
5.13528e-05
5.0926e-05
5.07981e-05
5.0895e-05
5.13119e-05
5.20148e-05
5.7724e-05
5.59797e-05
5.40683e-05
5.26009e-05
5.19274e-05
5.17734e-05
5.15024e-05
5.1442e-05
5.20814e-05
5.31686e-05
5.69033e-05
5.58678e-05
5.42895e-05
5.36416e-05
5.37133e-05
5.34373e-05
5.25095e-05
5.23582e-05
5.32206e-05
5.44191e-05
6.07541e-05
5.8254e-05
5.65236e-05
5.61851e-05
5.61107e-05
5.5158e-05
5.36106e-05
5.3441e-05
5.44096e-05
5.54471e-05
6.30608e-05
6.12917e-05
5.97695e-05
5.85595e-05
5.77661e-05
5.68183e-05
5.48529e-05
5.47555e-05
5.58739e-05
5.6481e-05
5.69325e-05
5.58815e-05
5.52766e-05
5.41444e-05
5.2567e-05
5.17926e-05
5.26297e-05
5.38941e-05
5.44011e-05
5.49869e-05
5.70707e-05
5.54364e-05
5.44236e-05
5.32807e-05
5.19098e-05
5.11405e-05
5.15549e-05
5.24068e-05
5.30816e-05
5.43364e-05
5.70324e-05
5.52198e-05
5.38923e-05
5.26183e-05
5.12792e-05
5.05923e-05
5.07159e-05
5.14198e-05
5.2261e-05
5.36766e-05
5.66407e-05
5.49856e-05
5.34511e-05
5.20331e-05
5.07658e-05
5.02055e-05
5.01257e-05
5.04997e-05
5.11599e-05
5.2137e-05
5.65248e-05
5.47723e-05
5.31042e-05
5.16893e-05
5.06406e-05
5.01773e-05
5.00445e-05
5.01593e-05
5.055e-05
5.1104e-05
5.64977e-05
5.47441e-05
5.30505e-05
5.16889e-05
5.08449e-05
5.05296e-05
5.04199e-05
5.05264e-05
5.09435e-05
5.15256e-05
5.65042e-05
5.48101e-05
5.32424e-05
5.20097e-05
5.15225e-05
5.13373e-05
5.11768e-05
5.1312e-05
5.19202e-05
5.28093e-05
5.74677e-05
5.54659e-05
5.39055e-05
5.31122e-05
5.29435e-05
5.25902e-05
5.21253e-05
5.22184e-05
5.28126e-05
5.37827e-05
6.04554e-05
5.83878e-05
5.65381e-05
5.5471e-05
5.48753e-05
5.41545e-05
5.31157e-05
5.32245e-05
5.36508e-05
5.42675e-05
6.11193e-05
5.97629e-05
5.86071e-05
5.75131e-05
5.64465e-05
5.54337e-05
5.41514e-05
5.4568e-05
5.50226e-05
5.51441e-05
0.135481
0.138359
0.137861
0.138172
0.142564
0.14256
0.138165
0.137853
0.138345
0.135465
0.138355
0.14286
0.144447
0.145213
0.146158
0.14616
0.145209
0.144434
0.142861
0.13836
0.137854
0.144446
0.14645
0.147217
0.147574
0.147564
0.147218
0.146479
0.144466
0.137862
0.138166
0.145212
0.147218
0.147959
0.148253
0.148292
0.147998
0.147256
0.145239
0.138175
0.142562
0.146161
0.147565
0.148288
0.148594
0.148599
0.148302
0.147615
0.14619
0.142579
0.142553
0.146176
0.147613
0.148303
0.1486
0.1486
0.148302
0.147614
0.146196
0.142619
0.138177
0.145241
0.147256
0.148005
0.148303
0.148306
0.148014
0.147311
0.145355
0.138468
0.13786
0.144469
0.146483
0.147263
0.147624
0.147692
0.147366
0.146848
0.144769
0.138099
0.138355
0.142878
0.144473
0.145324
0.14629
0.146554
0.145576
0.144749
0.143142
0.13859
0.135471
0.138423
0.137939
0.138446
0.142922
0.14285
0.138415
0.138102
0.13859
0.135693
0.147058
0.148308
0.148449
0.148654
0.14969
0.149689
0.148652
0.148447
0.148304
0.147052
0.148307
0.149833
0.15049
0.150839
0.151127
0.151127
0.150838
0.150486
0.149834
0.148304
0.148448
0.15049
0.151305
0.151693
0.15187
0.151866
0.151693
0.151315
0.150495
0.148446
0.148653
0.150839
0.151693
0.152106
0.152289
0.152305
0.152121
0.151706
0.150847
0.148653
0.14969
0.151128
0.151867
0.152303
0.1525
0.152501
0.152308
0.151885
0.151136
0.149692
0.149687
0.151133
0.151885
0.152308
0.152501
0.152501
0.152308
0.151884
0.151135
0.149683
0.148654
0.150848
0.151706
0.152123
0.152308
0.152306
0.15212
0.15169
0.150809
0.148444
0.148446
0.150495
0.151316