/*--------------------------------*- C++ -*----------------------------------*\
  =========                 |
  \\      /  F ield         | OpenFOAM: The Open Source CFD Toolbox
   \\    /   O peration     | Website:  https://openfoam.org
    \\  /    A nd           | Version:  9
     \\/     M anipulation  |
\*---------------------------------------------------------------------------*/
FoamFile
{
    format      ascii;
    class       volScalarField;
    location    "1";
    object      f21.gas;
}
// * * * * * * * * * * * * * * * * * * * * * * * * * * * * * * * * * * * * * //

dimensions      [0 0 0 0 0 0 0];

internalField   nonuniform List<scalar> 
137980
(
0.772361
0.752561
0.777371
0.786285
0.778865
0.778084
0.777153
0.771681
0.765474
0.758044
0.745866
0.743986
0.758796
0.766808
0.753015
0.768089
0.771167
0.761064
0.749412
0.746897
0.773338
0.771945
0.746744
0.741445
0.74008
0.745995
0.75525
0.759081
0.764058
0.760012
0.783344
0.791931
0.776193
0.76202
0.752328
0.744636
0.758339
0.775918
0.79573
0.799028
0.804484
0.802963
0.788817
0.775832
0.76761
0.759679
0.759217
0.769177
0.795817
0.805222
0.813046
0.809069
0.796337
0.785901
0.780509
0.771316
0.764504
0.770202
0.796855
0.790566
0.810992
0.799827
0.78121
0.786806
0.785825
0.777412
0.765229
0.771827
0.791544
0.771724
0.793403
0.777655
0.782533
0.796187
0.797226
0.79151
0.753462
0.754106
0.782144
0.772001
0.788595
0.780871
0.793814
0.809707
0.813877
0.812225
0.801574
0.747124
0.7617
0.781956
0.780076
0.776927
0.793262
0.81073
0.821158
0.817537
0.812581
0.797903
0.770546
0.777033
0.842429
0.834208
0.837865
0.842154
0.842176
0.843255
0.843292
0.839851
0.83403
0.833047
0.827435
0.833287
0.832897
0.834136
0.83533
0.834751
0.829938
0.826351
0.82695
0.832131
0.832455
0.836029
0.830925
0.828912
0.831282
0.829939
0.826242
0.824405
0.82547
0.827072
0.837922
0.838808
0.836496
0.833473
0.834476
0.831162
0.83
0.829534
0.830948
0.833937
0.843592
0.84236
0.838426
0.836911
0.838212
0.835755
0.834246
0.835216
0.837259
0.838676
0.844185
0.842511
0.840119
0.83872
0.839363
0.839837
0.838674
0.838616
0.840486
0.838926
0.843226
0.838968
0.83733
0.839392
0.839007
0.839895
0.840569
0.840703
0.843463
0.841282
0.839409
0.837721
0.839578
0.839377
0.837391
0.83932
0.838408
0.838305
0.841535
0.842481
0.841074
0.840374
0.841822
0.839695
0.836366
0.836826
0.841387
0.839754
0.840329
0.841934
0.848571
0.850851
0.850455
0.841095
0.835166
0.835737
0.840557
0.840553
0.842196
0.840759
0.867677
0.868142
0.866452
0.866802
0.868082
0.869253
0.869663
0.869404
0.86878
0.86695
0.866104
0.862662
0.862996
0.864
0.865515
0.867054
0.867632
0.867502
0.867735
0.867054
0.85828
0.859523
0.862122
0.863605
0.865324
0.866974
0.867703
0.868147
0.867609
0.865519
0.856896
0.858715
0.862964
0.865018
0.867098
0.868092
0.86901
0.869001
0.867407
0.865091
0.856012
0.861243
0.866078
0.86677
0.867156
0.868072
0.86889
0.868855
0.867546
0.864378
0.863867
0.865355
0.865167
0.865151
0.866216
0.867588
0.868023
0.867492
0.865796
0.865748
0.865205
0.863997
0.863284
0.864538
0.866427
0.86705
0.866075
0.863826
0.862211
0.863025
0.86309
0.861303
0.863249
0.866175
0.866853
0.865714
0.86183
0.859444
0.860665
0.861824
0.862099
0.863429
0.867658
0.866854
0.866505
0.861201
0.857363
0.858417
0.863185
0.864565
0.867884
0.870187
0.868663
0.868271
0.864982
0.85606
0.856392
0.861076
0.870652
0.870533
0.873933
0.873512
0.871993
0.870854
0.870551
0.871372
0.872748
0.871033
0.870347
0.87107
0.873821
0.873867
0.872843
0.872584
0.873486
0.872706
0.870847
0.869516
0.869481
0.870265
0.874629
0.87509
0.874907
0.874851
0.870426
0.868382
0.868265
0.868586
0.869142
0.869907
0.874171
0.874716
0.873934
0.868485
0.867011
0.867118
0.867776
0.868955
0.869881
0.870066
0.870187
0.870178
0.867774
0.866016
0.866178
0.86697
0.868813
0.870463
0.870922
0.870892
0.867374
0.866546
0.864611
0.864937
0.865984
0.86845
0.870569
0.871129
0.871182
0.871102
0.863201
0.862118
0.862627
0.864675
0.86833
0.870439
0.871193
0.871205
0.871025
0.871649
0.859208
0.859896
0.863591
0.868773
0.86998
0.871004
0.871006
0.87009
0.870976
0.873909
0.858228
0.86287
0.86952
0.869883
0.869943
0.870226
0.868673
0.868779
0.872143
0.873989
0.864179
0.87356
0.869845
0.868776
0.868219
0.868042
0.8657
0.869827
0.870373
0.871271
0.874326
0.876579
0.878601
0.878603
0.877862
0.876531
0.874944
0.873898
0.873765
0.873808
0.873255
0.875307
0.876226
0.875771
0.87535
0.874055
0.87322
0.873471
0.874048
0.874197
0.872569
0.87562
0.876128
0.876045
0.873241
0.872483
0.872846
0.874117
0.875422
0.875619
0.871176
0.876174
0.875723
0.873397
0.872228
0.872465
0.873464
0.875549
0.876387
0.876415
0.868048
0.873496
0.873951
0.872792
0.872052
0.872467
0.874259
0.876141
0.87653
0.87616
0.86603
0.870105
0.870294
0.870114
0.870764
0.872458
0.875285
0.87629
0.875889
0.875503
0.862868
0.865078
0.866198
0.868593
0.871737
0.874711
0.876207
0.875811
0.874657
0.875914
0.861425
0.862725
0.866975
0.873596
0.874823
0.876241
0.876263
0.873817
0.874323
0.87699
0.860639
0.867532
0.876854
0.876423
0.875379
0.875984
0.873171
0.873024
0.874283
0.877298
0.863778
0.882272
0.879673
0.874584
0.872842
0.873001
0.872213
0.872706
0.874299
0.877077
0.89585
0.895562
0.894585
0.891089
0.883987
0.879414
0.877336
0.876396
0.876479
0.876588
0.895801
0.894287
0.890133
0.883302
0.879407
0.87746
0.87651
0.876444
0.877088
0.877895
0.894408
0.892258
0.886344
0.880932
0.878284
0.876813
0.876578
0.876972
0.878004
0.879389
0.89267
0.889391
0.883908
0.879828
0.877576
0.876979
0.877019
0.87738
0.878298
0.879794
0.886165
0.882145
0.878957
0.876883
0.876038
0.876106
0.876512
0.877106
0.878374
0.880316
0.871363
0.871567
0.872128
0.872718
0.873414
0.874742
0.875754
0.876943
0.879234
0.881574
0.868209
0.869154
0.87033
0.871436
0.872732
0.874452
0.875821
0.878343
0.881711
0.883987
0.869208
0.870081
0.871511
0.873113
0.875476
0.877229
0.879679
0.883148
0.884991
0.886056
0.873834
0.874852
0.877302
0.880552
0.882263
0.884163
0.885808
0.886331
0.886629
0.886684
0.885428
0.890804
0.892049
0.890903
0.88858
0.88874
0.88849
0.887705
0.887075
0.886694
0.898885
0.899096
0.899897
0.902051
0.901896
0.898493
0.887969
0.881586
0.880862
0.880491
0.90209
0.900718
0.901084
0.90242
0.901967
0.897904
0.888489
0.883238
0.882481
0.881951
0.907673
0.905177
0.904707
0.904271
0.902264
0.896021
0.888694
0.884944
0.8846
0.885038
0.907721
0.907275
0.906643
0.905289
0.901688
0.896087
0.89169
0.889071
0.888368
0.888408
0.907076
0.907353
0.906982
0.905897
0.903331
0.899078
0.894915
0.892189
0.891007
0.890436
0.900956
0.902451
0.902255
0.901186
0.89844
0.895203
0.893068
0.891916
0.891279
0.89078
0.888968
0.89118
0.892077
0.891742
0.890827
0.890274
0.890245
0.890274
0.89045
0.890505
0.883934
0.88557
0.88656
0.886881
0.887569
0.888199
0.889179
0.889703
0.890808
0.891169
0.883319
0.884381
0.885266
0.886546
0.888315
0.889753
0.891367
0.892167
0.893637
0.893911
0.885288
0.886439
0.890219
0.894623
0.89718
0.897712
0.89729
0.897829
0.898809
0.89932
0.91103
0.914916
0.918543
0.918354
0.915967
0.907004
0.896898
0.894726
0.894272
0.891719
0.912164
0.913705
0.916954
0.917711
0.916862
0.911038
0.899682
0.896118
0.897366
0.895192
0.91509
0.914328
0.915443
0.91744
0.917079
0.912375
0.901969
0.898912
0.899141
0.9008
0.91698
0.915959
0.916537
0.918118
0.917658
0.912765
0.904804
0.903317
0.904177
0.906058
0.920571
0.920067
0.920118
0.92007
0.918602
0.912668
0.908469
0.908518
0.909144
0.908089
0.918065
0.920839
0.921086
0.92065
0.919005
0.915038
0.9133
0.912669
0.910827
0.907071
0.910225
0.917296
0.91968
0.919741
0.919071
0.917921
0.915935
0.914013
0.90994
0.906125
0.901703
0.907437
0.912782
0.915917
0.916669
0.916386
0.915505
0.913513
0.908633
0.905809
0.89795
0.900964
0.904172
0.906999
0.909203
0.910741
0.9106
0.909653
0.907084
0.905702
0.896553
0.898132
0.899756
0.901636
0.903199
0.904845
0.906146
0.906052
0.90557
0.905486
0.922391
0.924867
0.927397
0.928222
0.926564
0.924209
0.922382
0.920542
0.915671
0.911895
0.921096
0.92339
0.92746
0.92879
0.927493
0.925628
0.924622
0.924501
0.923075
0.91931
0.921639
0.9234
0.927385
0.929101
0.927993
0.926639
0.926111
0.926353
0.925346
0.922862
0.922976
0.925093
0.928594
0.929277
0.928674
0.928232
0.928332
0.928098
0.926278
0.924091
0.925547
0.927642
0.928922
0.929242
0.929189
0.92931
0.929284
0.928508
0.926008
0.923571
0.924668
0.926717
0.927895
0.928603
0.929046
0.929356
0.929176
0.927439
0.923935
0.920722
0.919727
0.923068
0.924791
0.926008
0.92697
0.927714
0.927632
0.925406
0.921646
0.917922
0.911491
0.916171
0.920321
0.922832
0.92411
0.925407
0.925764
0.923094
0.919339
0.916416
0.907339
0.910627
0.914217
0.918012
0.920778
0.922865
0.924174
0.920594
0.917557
0.915283
0.904454
0.906987
0.909554
0.91286
0.916849
0.920524
0.922193
0.918851
0.916973
0.915883
0.919526
0.925364
0.928165
0.931569
0.932707
0.93269
0.932948
0.932792
0.93166
0.929122
0.920577
0.92539
0.929771
0.932698
0.933464
0.933486
0.933826
0.933855
0.932716
0.93039
0.922893
0.925608
0.929969
0.932513
0.933636
0.934051
0.934646
0.934611
0.93344
0.931119
0.926071
0.927533
0.930525
0.932448
0.933672
0.934416
0.935079
0.93491
0.933638
0.931289
0.925992
0.928314
0.930495
0.932115
0.933428
0.934385
0.935001
0.934682
0.933375
0.930897
0.919243
0.924647
0.928086
0.930299
0.931897
0.933114
0.934007
0.933837
0.932714
0.929833
0.912447
0.916372
0.920646
0.924503
0.92755
0.929844
0.931914
0.932384
0.931556
0.928259
0.909221
0.911942
0.914944
0.918585
0.922234
0.925341
0.928634
0.930342
0.929937
0.92648
0.906061
0.908685
0.9111
0.91361
0.917166
0.920175
0.924009
0.927646
0.928246
0.925248
0.905629
0.908251
0.910865
0.912822
0.915558
0.917918
0.920538
0.924409
0.926142
0.924684
0.918834
0.921786
0.926387
0.931229
0.934327
0.935569
0.935589
0.935107
0.933775
0.93181
0.922645
0.926827
0.931745
0.93509
0.936813
0.937397
0.937239
0.936583
0.935156
0.932491
0.927466
0.931197
0.934467
0.936594
0.93775
0.938117
0.937887
0.937124
0.935642
0.932916
0.928629
0.932102
0.934794
0.936452
0.937459
0.937926
0.937716
0.936934
0.935503
0.932806
0.924368
0.928818
0.931818
0.933804
0.935189
0.936216
0.936262
0.935801
0.934678
0.932384
0.918202
0.923159
0.927022
0.929877
0.931913
0.933476
0.934247
0.934119
0.933363
0.9316
0.912729
0.917475
0.92194
0.925625
0.928436
0.930415
0.931773
0.932074
0.931604
0.929969
0.910147
0.914449
0.918572
0.92228
0.925706
0.928282
0.929881
0.930301
0.929863
0.927856
0.910853
0.91484
0.918628
0.921986
0.925069
0.927482
0.928803
0.928968
0.92819
0.925167
0.91447
0.917542
0.920264
0.922679
0.924835
0.92651
0.927351
0.927336
0.926115
0.92236
0.919231
0.922749
0.927186
0.930986
0.933569
0.935068
0.935281
0.934843
0.933557
0.93159
0.925523
0.928939
0.932492
0.935329
0.937128
0.938111
0.938084
0.937477
0.936002
0.93298
0.928745
0.932479
0.935306
0.937296
0.938594
0.939365
0.939327
0.938697
0.937077
0.933483
0.929658
0.93312
0.935725
0.937523
0.938712
0.939539
0.939667
0.939088
0.937398
0.933372
0.927726
0.931392
0.934071
0.936052
0.937497
0.93868
0.939198
0.938829
0.937165
0.932938
0.924901
0.928609
0.931535
0.933986
0.935875
0.937273
0.937955
0.937769
0.936472
0.932698
0.9224
0.926427
0.929329
0.931794
0.933898
0.935415
0.936216
0.936134
0.935131
0.931983
0.921382
0.925211
0.927526
0.929686
0.931703
0.933122
0.933903
0.933855
0.932953
0.930182
0.921182
0.923737
0.925519
0.927477
0.92909
0.930088
0.930822
0.930926
0.929969
0.926668
0.920305
0.921107
0.92293
0.924382
0.925235
0.925604
0.926256
0.927204
0.926598
0.9242
0.913742
0.916038
0.91998
0.922731
0.925189
0.927325
0.928872
0.929256
0.928689
0.926639
0.921817
0.923679
0.926407
0.928975
0.931505
0.93373
0.934427
0.934079
0.932425
0.927678
0.925977
0.929264
0.932012
0.934517
0.936676
0.93786
0.937788
0.936926
0.934381
0.928188
0.927248
0.931158
0.934444
0.936917
0.938653
0.939429
0.939231
0.938258
0.935531
0.928717
0.926809
0.9308
0.934281
0.936878
0.938675
0.939604
0.939488
0.938654
0.936137
0.929805
0.924517
0.92835
0.931985
0.934826
0.936856
0.938176
0.938363
0.937889
0.936096
0.931163
0.921853
0.925594
0.929204
0.932031
0.934141
0.93557
0.936193
0.936097
0.93503
0.931605
0.918771
0.922622
0.92609
0.928687
0.930616
0.931907
0.932757
0.933157
0.932712
0.930688
0.91561
0.919701
0.922686
0.924767
0.926218
0.927101
0.927803
0.928751
0.929067
0.928276
0.912803
0.916679
0.918829
0.920188
0.920954
0.921021
0.92127
0.922407
0.923917
0.924545
0.901024
0.906105
0.91026
0.913662
0.917748
0.921504
0.922538
0.921992
0.918958
0.911047
0.909209
0.914021
0.918038
0.921642
0.925384
0.927539
0.927507
0.926081
0.920847
0.910467
0.913012
0.918077
0.922737
0.926905
0.930064
0.931329
0.930941
0.928972
0.923241
0.913426
0.916662
0.92217
0.926705
0.930085
0.932359
0.933145
0.932661
0.930792
0.925773
0.917016
0.918227
0.923649
0.927726
0.930712
0.932733
0.933522
0.933133
0.931552
0.927627
0.920069
0.917283
0.922311
0.926142
0.929002
0.930916
0.931999
0.9319
0.930941
0.928227
0.921984
0.914387
0.919236
0.922901
0.925598
0.927394
0.928501
0.92879
0.928453
0.92686
0.92228
0.910745
0.915573
0.918898
0.921168
0.922565
0.92321
0.923732
0.924119
0.923672
0.921034
0.906676
0.911341
0.914099
0.915795
0.916501
0.916458
0.916628
0.917556
0.918561
0.91769
0.902205
0.906588
0.908672
0.90966
0.909394
0.908261
0.907796
0.908698
0.911493
0.912259
0.876957
0.884149
0.889333
0.89478
0.899984
0.902128
0.901865
0.899866
0.894178
0.883296
0.886343
0.892863
0.898632
0.903938
0.907715
0.908801
0.907945
0.904468
0.895852
0.883351
0.888843
0.897283
0.90445
0.909792
0.913091
0.913584
0.91214
0.907679
0.898549
0.886479
0.891694
0.901035
0.907818
0.912666
0.915472
0.915737
0.91417
0.909707
0.900762
0.889535
0.89428
0.90254
0.908751
0.913294
0.915885
0.916146
0.914714
0.910586
0.902507
0.891808
0.894831
0.901913
0.907367
0.911425
0.913737
0.914129
0.913155
0.91026
0.903385
0.892971
0.89245
0.898609
0.903629
0.907142
0.909041
0.909437
0.908883
0.907277
0.902707
0.892974
0.888167
0.894115
0.898479
0.90102
0.902119
0.902189
0.901881
0.901501
0.899483
0.891911
0.882724
0.888399
0.891811
0.893371
0.893596
0.893017
0.892416
0.892713
0.892945
0.888383
0.876335
0.881597
0.884014
0.884763
0.884147
0.882442
0.880708
0.880365
0.881839
0.879841
0.858416
0.86688
0.873967
0.880046
0.883377
0.883429
0.881346
0.87603
0.867884
0.856704
0.866146
0.874209
0.881787
0.88722
0.889908
0.889681
0.886597
0.879958
0.870408
0.858322
0.868753
0.878986
0.886938
0.891835
0.894053
0.893657
0.890135
0.88316
0.873433
0.862056
0.872039
0.882167
0.889174
0.893728
0.89578
0.895448
0.892169
0.885704
0.876408
0.866033
0.873658
0.883049
0.889486
0.893933
0.895979
0.895829
0.892875
0.887021
0.878468
0.868395
0.873145
0.881038
0.886741
0.891338
0.893738
0.894072
0.892031
0.887244
0.879131
0.869102
0.869406
0.875953
0.881648
0.886452
0.889164
0.889777
0.888481
0.885143
0.878154
0.868118
0.863366
0.869554
0.875243
0.879777
0.882274
0.882862
0.881743
0.879535
0.874914
0.865934
0.855796
0.862151
0.867647
0.871635
0.87349
0.873663
0.871948
0.869592
0.866936
0.860725
0.846778
0.853599
0.858859
0.862141
0.86345
0.862973
0.860232
0.856527
0.853085
0.848987
0.854625
0.863399
0.871039
0.876225
0.87827
0.877416
0.873483
0.866843
0.858392
0.847965
0.861164
0.870165
0.878146
0.882772
0.88436
0.883265
0.878818
0.871863
0.86328
0.852882
0.864902
0.875465
0.882966
0.887032
0.888383
0.887323
0.882891
0.875963
0.867477
0.857389
0.868303
0.878173
0.884909
0.888866
0.890278
0.889535
0.88565
0.879271
0.871055
0.861599
0.869433
0.878767
0.885058
0.889141
0.890737
0.890268
0.886794
0.880914
0.872996
0.863616
0.868007
0.876196
0.881761
0.886724
0.889124
0.889338
0.88655
0.881093
0.873305
0.863861
0.863538
0.870466
0.876007
0.881802
0.885184
0.885832
0.883708
0.878978
0.871757
0.862217
0.856929
0.863099
0.869116
0.875281
0.878868
0.879629
0.877597
0.873501
0.867715
0.859196
0.848354
0.854841
0.861543
0.867463
0.870354
0.870774
0.868153
0.863813
0.859005
0.852708
0.838153
0.845756
0.852888
0.858013
0.860253
0.860204
0.856858
0.851499
0.845951
0.841263
0.899928
0.902522
0.904898
0.906401
0.907057
0.907271
0.906925
0.90505
0.901697
0.89742
0.902433
0.90583
0.908349
0.909473
0.90976
0.909875
0.909422
0.907484
0.904399
0.900329
0.903916
0.90782
0.910034
0.911095
0.911514
0.911552
0.910823
0.909011
0.906276
0.902868
0.905047
0.908821
0.910809
0.91181
0.912241
0.912261
0.911521
0.910055
0.907922
0.905476
0.90535
0.909104
0.910946
0.91193
0.912377
0.912427
0.911848
0.910783
0.909044
0.906718
0.904666
0.908263
0.909843
0.91124
0.912076
0.912231
0.911863
0.910912
0.909163
0.906769
0.902501
0.905941
0.907319
0.909447
0.911228
0.911591
0.911322
0.910339
0.908518
0.905796
0.898657
0.902542
0.903743
0.90686
0.90969
0.910453
0.910161
0.909051
0.907184
0.904109
0.893829
0.897791
0.899833
0.903986
0.907318
0.908327
0.908037
0.906748
0.904838
0.901939
0.888492
0.892
0.89663
0.90107
0.904247
0.905374
0.905263
0.903886
0.901681
0.899559
0.931566
0.931756
0.931822
0.932081
0.933362
0.934517
0.934833
0.934273
0.933424
0.93238
0.932247
0.933218
0.933935
0.934076
0.934912
0.935949
0.935986
0.935373
0.934441
0.93315
0.932533
0.934193
0.935175
0.935798
0.936578
0.936931
0.936765
0.936083
0.935166
0.934186
0.933114
0.935042
0.936078
0.936848
0.937391
0.937529
0.937337
0.936766
0.936006
0.935341
0.93345
0.935413
0.936406
0.937086
0.937468
0.937598
0.937571
0.937257
0.936651
0.935951
0.933475
0.93545
0.936365
0.93697
0.937283
0.937425
0.937464
0.937241
0.936633
0.935912
0.932915
0.93478
0.935512
0.936334
0.936772
0.936852
0.936834
0.936611
0.936039
0.935315
0.931539
0.933431
0.933905
0.935084
0.936043
0.936259
0.936136
0.935944
0.935498
0.934693
0.92941
0.931307
0.932078
0.933603
0.934954
0.935563
0.935523
0.93535
0.934941
0.934089
0.927144
0.928695
0.931026
0.932618
0.933892
0.934694
0.934675
0.934335
0.933924
0.933384
0.945999
0.94596
0.945691
0.945694
0.947235
0.947843
0.947815
0.947622
0.947467
0.947073
0.946082
0.946426
0.946587
0.946526
0.948038
0.948649
0.948625
0.94841
0.948083
0.947396
0.945823
0.946518
0.947036
0.947698
0.948987
0.949298
0.949196
0.948841
0.94833
0.947598
0.945988
0.947063
0.947815
0.948732
0.949519
0.949703
0.949576
0.949137
0.948536
0.947863
0.946611
0.94767
0.948438
0.949175
0.949599
0.949725
0.94969
0.949382
0.948865
0.948311
0.946861
0.94794
0.948662
0.949191
0.949472
0.949582
0.949583
0.949331
0.948888
0.948403
0.946825
0.94784
0.948361
0.948771
0.948998
0.949103
0.94912
0.948935
0.948531
0.948023
0.946413
0.947186
0.947576
0.948057
0.948354
0.948519
0.948587
0.948541
0.948273
0.947733
0.945439
0.945865
0.946365
0.947063
0.947642
0.947937
0.948085
0.948126
0.948035
0.947565
0.943787
0.944324
0.945493
0.946194
0.94673
0.947315
0.947426
0.947384
0.947337
0.94715
0.952753
0.952981
0.952994
0.952818
0.953359
0.954018
0.954005
0.953731
0.953594
0.953307
0.952866
0.953295
0.953381
0.953319
0.95413
0.95467
0.954682
0.954459
0.95419
0.953611
0.95281
0.953312
0.953585
0.953805
0.954733
0.955159
0.955158
0.954882
0.954456
0.953753
0.952623
0.95325
0.953728
0.954251
0.955126
0.955456
0.955459
0.955198
0.954704
0.953999
0.952408
0.953257
0.953909
0.954613
0.955266
0.955476
0.95549
0.95531
0.954903
0.95429
0.95255
0.953479
0.954226
0.954836
0.955249
0.955408
0.955427
0.955244
0.954878
0.954329
0.952979
0.953748
0.954306
0.954746
0.955031
0.955156
0.95519
0.955066
0.95474
0.954219
0.952923
0.953443
0.953867
0.954174
0.954406
0.954682
0.95481
0.95479
0.954495
0.953929
0.95212
0.952517
0.953038
0.953431
0.953721
0.954124
0.954344
0.954356
0.954177
0.953721
0.950732
0.951402
0.952059
0.952533
0.95288
0.953419
0.953698
0.953683
0.953586
0.95339
0.9562
0.956486
0.956755
0.956911
0.957172
0.957471
0.957424
0.957131
0.956906
0.956609
0.956362
0.956788
0.957068
0.957187
0.957513
0.957825
0.957836
0.957639
0.957366
0.956918
0.956381
0.956889
0.957229
0.957386
0.957786
0.958097
0.958132
0.957976
0.957677
0.957195
0.956374
0.956893
0.957256
0.957511
0.957968
0.958248
0.958298
0.9582
0.957944
0.957556
0.956302
0.956828
0.957199
0.957571
0.958024
0.95823
0.958279
0.958224
0.958021
0.957703
0.956045
0.956634
0.957148
0.957614
0.957993
0.958161
0.958213
0.958159
0.957973
0.957684
0.956036
0.95665
0.957162
0.957582
0.957863
0.957999
0.958059
0.958048
0.957882
0.957575
0.95608
0.956573
0.957001
0.957278
0.957444
0.957639
0.957809
0.957835
0.957655
0.957287
0.955563
0.956028
0.956409
0.956666
0.95689
0.957224
0.957485
0.957513
0.957343
0.957016
0.954666
0.955197
0.95563
0.956026
0.956293
0.956665
0.957077
0.957084
0.956891
0.956687
0.957852
0.958106
0.958358
0.958582
0.958765
0.958885
0.958841
0.958675
0.958479
0.958246
0.957934
0.958247
0.958511
0.95873
0.958922
0.959066
0.959072
0.958964
0.95878
0.9585
0.957956
0.958301
0.958603
0.958838
0.959055
0.959216
0.959246
0.959166
0.959
0.958735
0.957943
0.958306
0.958634
0.958893
0.959138
0.959295
0.95934
0.959298
0.959159
0.958953
0.957886
0.958271
0.958607
0.958883
0.959136
0.959278
0.959327
0.959311
0.959204
0.959043
0.957691
0.95812
0.958501
0.958837
0.959082
0.959208
0.95926
0.959255
0.959163
0.95901
0.957584
0.958016
0.958424
0.958744
0.958943
0.959046
0.959125
0.959142
0.959058
0.958888
0.957529
0.957907
0.958273
0.958518
0.958635
0.958768
0.958917
0.958959
0.958883
0.958703
0.957033
0.957488
0.957847
0.95807
0.958238
0.958434
0.958664
0.95873
0.958663
0.95849
0.956695
0.957052
0.957371
0.957649
0.957876
0.958089
0.958384
0.958467
0.958384
0.958248
0.957955
0.958203
0.958403
0.958607
0.95881
0.958928
0.95888
0.958739
0.95859
0.958389
0.957993
0.958307
0.958547
0.958761
0.958966
0.959102
0.959101
0.959013
0.958864
0.958609
0.95798
0.958318
0.958613
0.958869
0.959096
0.95924
0.959265
0.959198
0.959046
0.958791
0.957933
0.958299
0.958648
0.958949
0.959184
0.959322
0.959361
0.959317
0.959187
0.958984
0.957853
0.958274
0.958657
0.958965
0.959192
0.959324
0.95937
0.95935
0.959249
0.959091
0.957755
0.958197
0.958616
0.958921
0.959131
0.95925
0.9593
0.959291
0.959199
0.959049
0.95767
0.958106
0.958453
0.958794
0.958974
0.959091
0.959156
0.959159
0.95907
0.958908
0.957481
0.957917
0.958256
0.958524
0.958679
0.958836
0.958948
0.958972
0.958908
0.958745
0.957112
0.957534
0.957865
0.958138
0.95834
0.958506
0.958694
0.958743
0.958708
0.958576
0.956869
0.957201
0.957538
0.9578
0.958041
0.95823
0.958435
0.958475
0.958435
0.958348
0.00505153
0.00402136
0.00613888
0.006963
0.00160748
0.00160941
0.00697093
0.00614776
0.00402849
0.00505485
0.00402543
0.00110523
0.000808012
0.000758647
0.000175674
0.000175853
0.000759499
0.000809263
0.00110817
0.00404227
0.00614595
0.000808804
0.000128935
6.03831e-05
1.30075e-05
1.30196e-05
6.04637e-05
0.000129415
0.000813111
0.00617171
0.00697021
0.000759432
6.04386e-05
5.51509e-06
7.47449e-07
7.485e-07
5.54095e-06
6.08654e-05
0.000763794
0.00699601
0.00160903
0.000175862
1.30223e-05
7.48091e-07
1.08071e-07
1.08227e-07
7.54045e-07
1.31347e-05
0.000177147
0.00161735
0.00161061
0.000176062
1.30428e-05
7.50126e-07
1.08281e-07
1.08392e-07
7.54838e-07
1.3137e-05
0.000177156
0.00161743
0.00698597
0.000762399
6.07882e-05
5.56177e-06
7.54631e-07
7.54871e-07
5.56753e-06
6.09056e-05
0.000763774
0.00699394
0.00617096
0.00081343
0.000129909
6.08976e-05
1.31345e-05
1.31364e-05
6.09012e-05
0.000129923
0.000813517
0.00617068
0.00404435
0.00111151
0.000813589
0.000763682
0.000177094
0.000177114
0.000763643
0.000813443
0.0011113
0.0040431
0.00507119
0.00404358
0.00617074
0.00699307
0.00161665
0.00161698
0.00699356
0.00617001
0.00404269
0.00506985
0.000906136
0.000618547
0.000914583
0.00102424
0.000222673
0.000222915
0.00102537
0.000915855
0.000619621
0.000907017
0.000619024
0.00016028
0.000114499
0.000106202
2.3615e-05
2.36367e-05
0.000106316
0.000114665
0.000160711
0.000622443
0.00091553
0.000114602
1.74416e-05
8.05847e-06
1.73903e-06
1.74048e-06
8.06878e-06
1.75134e-05
0.000115336
0.000920787
0.00102531
0.000106315
8.06622e-06
7.40144e-07
1.38666e-07
1.38785e-07
7.436e-07
8.13024e-06
0.000107051
0.00103053
0.000222909
2.36429e-05
1.74117e-06
1.38752e-07
5.83264e-08
5.83445e-08
1.39515e-07
1.75683e-06
2.38379e-05
0.000224372
0.000223082
2.36649e-05
1.74365e-06
1.39004e-07
5.83516e-08
5.83648e-08
1.3961e-07
1.75705e-06
2.38383e-05
0.000224406
0.00102851
0.000106841
8.12099e-06
7.46598e-07
1.39591e-07
1.39614e-07
7.47202e-07
8.1365e-06
0.000107088
0.00103134
0.000920658
0.000115424
1.75926e-05
8.13522e-06
1.75689e-06
1.75723e-06
8.13668e-06
1.76044e-05
0.000115514
0.000921501
0.000622997
0.000161422
0.000115432
0.000107069
2.38382e-05
2.38505e-05
0.000107125
0.000115504
0.000161522
0.000623409
0.000911301
0.000622973
0.000920926
0.00103115
0.000224498
0.000224518
0.00103121
0.000921417
0.000623358
0.000912049
0.000153644
9.17005e-05
0.000122147
0.000125908
2.64046e-05
2.64295e-05
0.000126038
0.000122315
9.18613e-05
0.000153833
9.17568e-05
2.26574e-05
1.48517e-05
1.27312e-05
2.74571e-06
2.74794e-06
1.2744e-05
1.48722e-05
2.27148e-05
9.2352e-05
0.000122263
1.48641e-05
2.19991e-06
9.6582e-07
2.26717e-07
2.26867e-07
9.66961e-07
2.20954e-06
1.49714e-05
0.000123127
0.00012604
1.27448e-05
9.66753e-07
1.13627e-07
4.60087e-08
4.60189e-08
1.14027e-07
9.7489e-07
1.28468e-05
0.000126862
2.64349e-05
2.74919e-06
2.26979e-07
4.60168e-08
3.6924e-08
3.69259e-08
4.61013e-08
2.28822e-07
2.7737e-06
2.66402e-05
2.64491e-05
2.75121e-06
2.27248e-07
4.60452e-08
3.69268e-08
3.69282e-08
4.61114e-08
2.2883e-07
2.77321e-06
2.65989e-05
0.000126559
1.28214e-05
9.74012e-07
1.14393e-07
4.61086e-08
4.61012e-08
1.14391e-07
9.73931e-07
1.27512e-05
0.000124517
0.00012311
1.49874e-05
2.22046e-06
9.74529e-07
2.28595e-07
2.27238e-07
9.68037e-07
2.18227e-06
1.47368e-05
0.000121105
9.24538e-05
2.28395e-05
1.49785e-05
1.27535e-05
2.7515e-06
2.71831e-06
1.26045e-05
1.47346e-05
2.25049e-05
9.11459e-05
0.000154711
9.21797e-05
0.000122494
0.00012449
2.61142e-05
2.61193e-05
0.000124504
0.000121095
9.11396e-05
0.000152886
2.32616e-05
1.23584e-05
1.46298e-05
1.36161e-05
2.78147e-06
2.78377e-06
1.3629e-05
1.46502e-05
1.23806e-05
2.32957e-05
1.23646e-05
2.93547e-06
1.74763e-06
1.36297e-06
2.99835e-07
3.00045e-07
1.36424e-06
1.74994e-06
2.94205e-06
1.24529e-05
1.46429e-05
1.74902e-06
2.66628e-07
1.20135e-07
4.35801e-08
4.35943e-08
1.20246e-07
2.67785e-07
1.76262e-06
1.47616e-05
1.36305e-05
1.36446e-06
1.20236e-07
3.22427e-08
2.54087e-08
2.54096e-08
3.22838e-08
1.21142e-07
1.37664e-06
1.37372e-05
2.78493e-06
3.00218e-07
4.36085e-08
2.54096e-08
2.44061e-08
2.44062e-08
2.54179e-08
4.37999e-08
3.02897e-07
2.80905e-06
2.78574e-06
3.00385e-07
4.36364e-08
2.54125e-08
2.44064e-08
2.44065e-08
2.54189e-08
4.37998e-08
3.02774e-07
2.80559e-06
1.3701e-05
1.37388e-06
1.21063e-07
3.23234e-08
2.54186e-08
2.54179e-08
3.2322e-08
1.21064e-07
1.37104e-06
1.38434e-05
1.47602e-05
1.76481e-06
2.69083e-07
1.21104e-07
4.37771e-08
4.37132e-08
1.20772e-07
2.70967e-07
1.77738e-06
1.48638e-05
1.24681e-05
2.96113e-06
1.76375e-06
1.37114e-06
3.01615e-07
3.05284e-07
1.38761e-06
1.77716e-06
2.97996e-06
1.25424e-05
2.34425e-05
1.24475e-05
1.47184e-05
1.3841e-05
2.83151e-06
2.83182e-06
1.38423e-05
1.48627e-05
1.25416e-05
2.35619e-05
3.25787e-06
1.57701e-06
1.68011e-06
1.42067e-06
2.94031e-07
2.94237e-07
1.42189e-06
1.68251e-06
1.57991e-06
3.26327e-06
1.57768e-06
3.69727e-07
2.07488e-07
1.51865e-07
4.40626e-08
4.4082e-08
1.51986e-07
2.07739e-07
3.7039e-07
1.58954e-06
1.68158e-06
2.07641e-07
4.29021e-08
2.65153e-08
1.89363e-08
1.89376e-08
2.65254e-08
4.30323e-08
2.09211e-07
1.69632e-06
1.42222e-06
1.52024e-07
2.65259e-08
1.78125e-08
1.71217e-08
1.71222e-08
1.78168e-08
2.66186e-08
1.53338e-07
1.43468e-06
2.94411e-07
4.41032e-08
1.89393e-08
1.71222e-08
1.69839e-08
1.69839e-08
1.71229e-08
1.89581e-08
4.43726e-08
2.97008e-07
2.94426e-07
4.41179e-08
1.89427e-08
1.71225e-08
1.6984e-08
1.6984e-08
1.7123e-08
1.8958e-08
4.43623e-08
2.96686e-07
1.43085e-06
1.53084e-07
2.66135e-08
1.78208e-08
1.7123e-08
1.71229e-08
1.78205e-08
2.66107e-08
1.52842e-07
1.43855e-06
1.69621e-06
2.09489e-07
4.31735e-08
2.66148e-08
1.89558e-08
1.89508e-08
2.65871e-08
4.324e-08
2.0989e-07
1.6995e-06
1.59152e-06
3.73005e-07
2.09363e-07
1.52856e-07
4.42663e-08
4.44693e-08
1.53759e-07
2.09871e-07
3.73496e-07
1.59306e-06
3.28479e-06
1.58916e-06
1.69193e-06
1.43839e-06
2.97856e-07
2.97893e-07
1.43847e-06
1.69939e-06
1.59298e-06
3.28513e-06
4.24013e-07
1.94551e-07
1.89707e-07
1.49314e-07
3.89491e-08
3.89672e-08
1.49426e-07
1.89974e-07
1.94904e-07
4.24773e-07
1.9462e-07
5.19991e-08
3.22217e-08
2.53627e-08
1.51069e-08
1.51087e-08
2.5374e-08
3.2248e-08
5.20581e-08
1.96057e-07
1.89866e-07
3.2238e-08
1.51683e-08
1.34602e-08
1.27484e-08
1.27485e-08
1.34611e-08
1.51822e-08
3.2404e-08
1.91516e-07
1.49475e-07
2.53789e-08
1.34614e-08
1.26312e-08
1.25548e-08
1.25551e-08
1.26319e-08
1.34703e-08
2.55089e-08
1.50788e-07
3.89889e-08
1.51111e-08
1.27487e-08
1.25552e-08
1.25271e-08
1.25271e-08
1.25552e-08
1.27507e-08
1.51365e-08
3.92449e-08
3.89845e-08
1.51128e-08
1.27494e-08
1.25552e-08
1.25272e-08
1.25271e-08
1.25552e-08
1.27507e-08
1.51357e-08
3.92162e-08
1.50426e-07
2.54879e-08
1.34701e-08
1.26323e-08
1.25552e-08
1.25552e-08
1.26322e-08
1.34695e-08
2.54603e-08
1.50627e-07
1.9151e-07
3.2435e-08
1.51961e-08
1.347e-08
1.27504e-08
1.27499e-08
1.34672e-08
1.51922e-08
3.24029e-08
1.91215e-07
1.96286e-07
5.23778e-08
3.24219e-08
2.54618e-08
1.51265e-08
1.51344e-08
2.54976e-08
3.24016e-08
5.22978e-08
1.95864e-07
4.27544e-07
1.96e-07
1.91037e-07
1.50617e-07
3.92189e-08
3.92226e-08
1.50623e-07
1.91206e-07
1.95856e-07
4.26333e-07
5.78915e-08
2.95652e-08
2.76081e-08
2.25089e-08
1.2223e-08
1.22245e-08
2.2519e-08
2.76367e-08
2.96055e-08
5.79884e-08
2.95721e-08
1.39188e-08
1.17216e-08
1.09633e-08
1.00357e-08
1.00359e-08
1.09643e-08
1.17243e-08
1.39235e-08
2.97311e-08
2.76249e-08
1.17233e-08
1.00519e-08
9.87927e-09
9.81247e-09
9.81247e-09
9.87933e-09
1.00534e-08
1.17396e-08
2.77941e-08
2.25252e-08
1.0965e-08
9.87941e-09
9.7966e-09
9.78479e-09
9.78492e-09
9.79675e-09
9.88029e-09
1.09769e-08
2.26519e-08
1.2227e-08
1.00362e-08
9.81255e-09
9.78495e-09
9.77691e-09
9.77691e-09
9.78494e-09
9.8128e-09
1.00385e-08
1.22506e-08
1.22262e-08
1.00365e-08
9.81272e-09
9.78495e-09
9.77691e-09
9.77691e-09
9.78494e-09
9.8128e-09
1.00384e-08
1.22482e-08
2.26209e-08
1.09754e-08
9.88031e-09
9.7968e-09
9.78494e-09
9.78493e-09
9.79678e-09
9.88022e-09
1.09724e-08
2.26087e-08
2.77938e-08
1.17428e-08
1.00547e-08
9.88025e-09
9.81276e-09