/*--------------------------------*- C++ -*----------------------------------*\
  =========                 |
  \\      /  F ield         | OpenFOAM: The Open Source CFD Toolbox
   \\    /   O peration     | Website:  https://openfoam.org
    \\  /    A nd           | Version:  9
     \\/     M anipulation  |
\*---------------------------------------------------------------------------*/
FoamFile
{
    format      ascii;
    class       volScalarField;
    location    "1";
    object      f5.gas;
}
// * * * * * * * * * * * * * * * * * * * * * * * * * * * * * * * * * * * * * //

dimensions      [0 0 0 0 0 0 0];

internalField   nonuniform List<scalar> 
137980
(
0.0077604
0.00901506
0.00739751
0.00697767
0.00755874
0.007665
0.00765483
0.00796097
0.00834559
0.00852816
0.00906711
0.00963165
0.00855692
0.00803088
0.00863163
0.00782307
0.00770305
0.00840217
0.0091707
0.00910286
0.0072709
0.00758967
0.00950802
0.00965431
0.00973145
0.00948991
0.00899936
0.00885829
0.00844097
0.00844126
0.00682428
0.00671998
0.00737833
0.00846589
0.00918929
0.0101099
0.0092986
0.00801007
0.00660314
0.00641575
0.00619149
0.00625955
0.00679402
0.00759962
0.00828538
0.0092079
0.00943542
0.00883468
0.0067967
0.00621461
0.00573375
0.00597252
0.0065306
0.00724696
0.00768768
0.00841698
0.00917086
0.00895993
0.00680451
0.00663071
0.00571246
0.00641932
0.00756498
0.0073493
0.00739289
0.00812654
0.00930103
0.00886997
0.00695597
0.00737678
0.00631663
0.0077481
0.00754016
0.00678915
0.00681971
0.00728425
0.0100885
0.00988357
0.00712968
0.00726965
0.00650385
0.00737798
0.00675183
0.00602066
0.00583743
0.00597519
0.0064084
0.0102151
0.00856932
0.00685114
0.00691452
0.00724504
0.00636167
0.00571321
0.00552344
0.00567035
0.00557143
0.00640055
0.00796502
0.00704812
0.0042649
0.00489282
0.00485296
0.00469475
0.00468396
0.00468497
0.00467402
0.00475633
0.00475853
0.00454158
0.00498119
0.00500819
0.00509861
0.00504903
0.00495572
0.00495609
0.00516259
0.00524161
0.00509293
0.00483117
0.00474834
0.00479905
0.00512999
0.00526874
0.00517084
0.00521276
0.00534974
0.00538569
0.00530372
0.00520651
0.00463149
0.00470686
0.00487502
0.00508438
0.00505776
0.00518215
0.00519642
0.00517243
0.00508461
0.00491663
0.00451764
0.0046032
0.00481896
0.00494707
0.00489595
0.00498184
0.00499384
0.00489916
0.00475565
0.00464653
0.00444378
0.00456913
0.00476007
0.00488859
0.00483209
0.00478328
0.00479496
0.00477891
0.00461864
0.00456871
0.00454736
0.00474764
0.00494281
0.00482716
0.0048132
0.00478042
0.00476295
0.00470286
0.00453932
0.00456448
0.00483295
0.0048997
0.00484063
0.00479101
0.00483844
0.00475081
0.00485782
0.00487272
0.00467582
0.00456198
0.00479081
0.00480499
0.00469962
0.00465619
0.00473398
0.00475919
0.00456979
0.00476381
0.00475602
0.00462153
0.00449117
0.00441454
0.00436928
0.00444037
0.0045932
0.00470026
0.00454078
0.00464111
0.00461919
0.00456056
0.00372832
0.00373354
0.00383471
0.00384231
0.00381195
0.0037683
0.00375443
0.00376101
0.00378267
0.00382311
0.00379095
0.00394056
0.00395794
0.00395192
0.00392175
0.00386648
0.00385167
0.00384866
0.00384351
0.00385942
0.00400478
0.00401051
0.00399155
0.00397299
0.00393469
0.00387755
0.00385814
0.00384423
0.00384401
0.00387976
0.00402584
0.00402658
0.00399398
0.00396515
0.00388612
0.00385259
0.00381982
0.00381211
0.00384642
0.00388523
0.004078
0.00400027
0.00392277
0.00390546
0.00389484
0.00385301
0.00381848
0.00381457
0.0038475
0.00390631
0.00393649
0.00394733
0.00397574
0.00397856
0.00393074
0.00387431
0.00385796
0.00387654
0.00392634
0.00391288
0.00394883
0.00402047
0.00405196
0.00399139
0.00390992
0.00389057
0.00391893
0.00396947
0.00396362
0.00395103
0.00404479
0.00412339
0.00404138
0.00389578
0.00387819
0.00391375
0.00399082
0.00398955
0.00395246
0.0039475
0.00409125
0.0040314
0.00381125
0.00385925
0.0038743
0.00398473
0.00399523
0.00396973
0.00383038
0.00384053
0.00381656
0.00369751
0.00375416
0.00378725
0.00383654
0.00398389
0.00395814
0.00381934
0.00363126
0.00363051
0.00351229
0.00352675
0.00360483
0.00367885
0.00371738
0.00369479
0.00366412
0.00374175
0.00377136
0.00375267
0.00353965
0.00354069
0.00358979
0.00362333
0.00360354
0.00366254
0.0037433
0.00380874
0.00379721
0.00377833
0.00353752
0.00352689
0.00353662
0.00354703
0.0037679
0.00386098
0.00385734
0.00383787
0.00380172
0.00378035
0.00355871
0.00354614
0.0035903
0.00385622
0.00390934
0.00389816
0.00386828
0.0038072
0.00376243
0.00376084
0.0037232
0.00375402
0.00387334
0.00394679
0.00393309
0.00389438
0.00380379
0.00372958
0.00371533
0.00372142
0.00386131
0.00390454
0.00399782
0.00397961
0.00392285
0.00379629
0.00371395
0.00369978
0.00370486
0.00371403
0.00403499
0.00408808
0.00406394
0.00396454
0.00377178
0.00370194
0.00368716
0.00369658
0.00370815
0.00368753
0.00418276
0.00415541
0.00398592
0.00373841
0.00370065
0.00368419
0.0036962
0.00373477
0.00370567
0.00356929
0.00420052
0.00401445
0.00367498
0.00368733
0.00370898
0.00372112
0.00377023
0.00377032
0.00363753
0.00353584
0.00397109
0.00350007
0.00365454
0.00374008
0.00376913
0.00377715
0.00383893
0.00369948
0.00366996
0.00360466
0.00350168
0.00343451
0.00335378
0.00336345
0.00340599
0.00349036
0.00358683
0.00363401
0.00363313
0.00363187
0.00361322
0.00355485
0.0035124
0.00353641
0.00356387
0.00363059
0.00367293
0.00365639
0.00362343
0.00362032
0.0036632
0.00356674
0.003538
0.00353673
0.00367175
0.00370783
0.00369524
0.00364518
0.0035753
0.00356626
0.00372251
0.00353254
0.00355604
0.00366505
0.00372199
0.0037127
0.00367529
0.00358218
0.00354402
0.00354546
0.00388376
0.00365822
0.0036357
0.00369797
0.00373637
0.00371587
0.00364025
0.00356025
0.00354287
0.00354834
0.00396812
0.00379373
0.00380315
0.0038153
0.00378179
0.00370812
0.00358855
0.00355005
0.00356446
0.00355512
0.0041043
0.00401572
0.00396719
0.00385012
0.00370142
0.00358233
0.00354338
0.00355946
0.00358566
0.00353159
0.00412954
0.00407728
0.00389013
0.00355684
0.00354939
0.00352968
0.00353481
0.0036156
0.0035929
0.00345876
0.00408947
0.00379802
0.00335534
0.00343132
0.00354282
0.00354704
0.00364132
0.0036367
0.00358481
0.0034276
0.00398288
0.00305984
0.00321414
0.00352279
0.00363933
0.0036639
0.00367006
0.00364422
0.00355953
0.00341397
0.00256299
0.00259788
0.00266371
0.00284854
0.00322576
0.00343348
0.00352475
0.00355637
0.00355054
0.00354072
0.00258311
0.00265745
0.0028692
0.00324018
0.00343821
0.00353105
0.00356574
0.0035628
0.00354575
0.00350746
0.0026538
0.00275518
0.00306855
0.00335876
0.00349151
0.00356193
0.00357183
0.00356101
0.00352934
0.00346047
0.00274198
0.00289898
0.00319735
0.00340933
0.00353236
0.00356939
0.00357046
0.00356211
0.00352938
0.00345228
0.00305788
0.00325886
0.00343793
0.00356215
0.00361963
0.00362643
0.00361713
0.00359019
0.00353314
0.00343639
0.00379547
0.00379598
0.00378355
0.00376649
0.00374373
0.00368944
0.00363729
0.00359337
0.00348816
0.00335814
0.00394022
0.00390318
0.00385771
0.00381544
0.00376559
0.0036903
0.00363248
0.00352724
0.00334166
0.00319984
0.00387316
0.00384491
0.0037853
0.00372094
0.00361655
0.00353122
0.00343476
0.00324237
0.00312716
0.00306706
0.00364299
0.00360141
0.00348923
0.00333673
0.00327167
0.00318355
0.00308456
0.00304111
0.00302307
0.00302311
0.00305115
0.00279995
0.0027694
0.00283736
0.00294778
0.00292691
0.00292078
0.00295264
0.00298689
0.00301244
0.00258319
0.00258071
0.002553
0.00245122
0.00245459
0.0026064
0.0030965
0.00338424
0.00340645
0.00341281
0.00245124
0.00251314
0.00250087
0.00243809
0.0024549
0.00263523
0.00307477
0.00331873
0.00336048
0.00337062
0.00217733
0.00230403
0.0023207
0.00233819
0.00242859
0.00272387
0.00306811
0.00325289
0.00328033
0.00326582
0.00215915
0.00218829
0.00222011
0.00228366
0.0024535
0.00272552
0.00293353
0.00307641
0.00312706
0.00313226
0.00218059
0.00217999
0.00219884
0.00224836
0.00236562
0.00257367
0.00278647
0.00293753
0.0030067
0.0030389
0.00242185
0.00238208
0.00239928
0.00245832
0.00260551
0.00278194
0.00290147
0.00296591
0.00299885
0.00301885
0.00303183
0.00292936
0.00291313
0.00293664
0.0029923
0.00302574
0.0030272
0.00302574
0.00301699
0.00301232
0.00327623
0.00320895
0.00317353
0.0031633
0.00313632
0.00311439
0.00306797
0.00304362
0.00298277
0.00296482
0.00328764
0.00325387
0.00322096
0.0031677
0.00308376
0.00301589
0.00292969
0.00288692
0.00280465
0.00279456
0.0031756
0.00313418
0.00296632
0.00275365
0.00264137
0.00261615
0.00263466
0.00260734
0.00254926
0.00252708
0.00213752
0.00198843
0.00183599
0.00184899
0.00195159
0.0023624
0.00282873
0.002924
0.0029195
0.00300839
0.00208829
0.0020306
0.00190343
0.00187963
0.00191137
0.0021726
0.00270393
0.00287344
0.00281715
0.00288466
0.00195595
0.00200351
0.00196247
0.00188721
0.00189993
0.00210985
0.00260358
0.00275401
0.00274643
0.00267341
0.00187432
0.00193006
0.00191429
0.00185462
0.00186915
0.00209116
0.00248187
0.00256184
0.0025235
0.00241841
0.0017143
0.00175012
0.00175841
0.00176215
0.00182684
0.00210581
0.00231816
0.00231683
0.00227627
0.00232563
0.00181929
0.00171828
0.00171261
0.00173026
0.00180303
0.00199541
0.00207934
0.00210214
0.00219124
0.00234042
0.00215038
0.0018629
0.00176769
0.0017669
0.001795
0.00184584
0.00193345
0.00202413
0.00221395
0.00236436
0.00252343
0.00228079
0.00205348
0.00192254
0.0018961
0.00190813
0.00194425
0.00202914
0.00225138
0.00237067
0.00268472
0.00256613
0.00243655
0.00231415
0.00222014
0.00215593
0.00216081
0.00219919
0.00231387
0.00236904
0.00273291
0.00267741
0.00261985
0.00254471
0.00248415
0.00241531
0.00235864
0.00235942
0.00237802
0.00237853
0.00164682
0.00155193
0.00147796
0.00146539
0.00153774
0.00164057
0.00171502
0.00176707
0.00201192
0.00217115
0.00170549
0.00162232
0.00148157
0.00145162
0.00150775
0.001583
0.00162173
0.00161127
0.00165998
0.00183208
0.00168935
0.00162893
0.00149161
0.00144848
0.00149481
0.00154393
0.00155963
0.00153474
0.00156024
0.00165898
0.00164328
0.00156998
0.00146047
0.00144416
0.00146872
0.00147788
0.00146097
0.00145379
0.00152082
0.00160479
0.00155476
0.00149281
0.00145264
0.00144651
0.00144402
0.00142747
0.00142078
0.00143706
0.00153547
0.00162796
0.00160158
0.00153067
0.00149509
0.00147265
0.00144828
0.00142681
0.00142481
0.00148528
0.00162383
0.00174955
0.00180573
0.00167707
0.00161746
0.00157544
0.00153747
0.00149505
0.00148457
0.00156091
0.00171793
0.00187674
0.00214918
0.00195852
0.00178686
0.00169484
0.00165165
0.00158834
0.00155375
0.00164636
0.00180976
0.00193924
0.00231521
0.00219487
0.00204964
0.00188806
0.00177547
0.00169827
0.00161095
0.00173947
0.00186497
0.00198672
0.00242232
0.00233368
0.00224642
0.00211567
0.00194259
0.00178237
0.00169925
0.00179934
0.0018735
0.00194433
0.00177767
0.00153494
0.00143279
0.00131517
0.0012907
0.00129841
0.00128236
0.00125826
0.00128216
0.00134961
0.00174226
0.00154942
0.00137836
0.00127828
0.00127647
0.0012835
0.00126757
0.0012361
0.00125827
0.00132376
0.00165604
0.00155896
0.0013868
0.00130467
0.00128275
0.00127685
0.00124824
0.00122544
0.00124722
0.00131256
0.00153862
0.00149173
0.00137972
0.00132708
0.00129381
0.00127442
0.00123536
0.00122432
0.00125078
0.00131824
0.00155534
0.00147729
0.00139831
0.00135779
0.00131495
0.00128112
0.00124116
0.00124318
0.00127127
0.001343
0.0018657
0.00165263
0.00152074
0.00144529
0.00138286
0.00133649
0.00128093
0.00127584
0.00129996
0.00138602
0.00214134
0.00200149
0.00184212
0.00169876
0.00157868
0.00148143
0.00137368
0.00132563
0.00134134
0.00144257
0.00224901
0.00216287
0.00206136
0.00192665
0.00178799
0.00167105
0.00152364
0.0014062
0.00140142
0.00150018
0.00238326
0.00229249
0.00221118
0.00212979
0.00198941
0.00187918
0.00172433
0.00152221
0.00145621
0.00153643
0.00238945
0.00230464
0.00221371
0.00215215
0.00204936
0.00195393
0.00186502
0.0016699
0.00153482
0.00155466
0.00180399
0.00169764
0.00151874
0.00132392
0.00120743
0.00116413
0.00115859
0.0011672
0.00119533
0.00124827
0.001643
0.00149356
0.00130634
0.00119287
0.00114117
0.00112233
0.0011244
0.00113905
0.00117366
0.00124193
0.00145136
0.00132494
0.0012175
0.00115397
0.00112318
0.0011124
0.00111645
0.00113476
0.00117222
0.00124371
0.00141598
0.00130177
0.00121899
0.00118
0.00115724
0.00114356
0.00114746
0.00116938
0.00120369
0.00127286
0.00162307
0.00145996
0.00136246
0.00130138
0.00125944
0.00122466
0.00121876
0.00122793
0.00125026
0.00130024
0.00190265
0.00171869
0.0015762
0.00147814
0.00140608
0.00135234
0.00131045
0.00130336
0.001312
0.00134238
0.00213245
0.00195923
0.00179313
0.00165504
0.00155457
0.0014757
0.00142242
0.00138146
0.00138248
0.0014054
0.00223883
0.00208217
0.00193194
0.00179242
0.00166154
0.00154944
0.00148763
0.00144276
0.00144275
0.00147706
0.00219704
0.00205538
0.001915
0.00178665
0.00166883
0.00156438
0.00150917
0.00147883
0.00148671
0.00156019
0.0020217
0.00191548
0.00181779
0.00172909
0.00164488
0.00157767
0.00154236
0.00151789
0.00153666
0.00164538
0.00177765
0.00163723
0.00146743
0.00132679
0.00123927
0.0011851
0.00116085
0.00116558
0.00118807
0.00123596
0.00150753
0.00139402
0.00127441
0.00118568
0.00113153
0.00109459
0.00108668
0.00109618
0.00112823
0.0012075
0.0013934
0.00127608
0.0011915
0.00113491
0.00109903
0.00107115
0.00106219
0.00107158
0.00110839
0.00120399
0.00137433
0.00126728
0.00118911
0.00114072
0.00111394
0.00108376
0.00105885
0.00106665
0.00110609
0.0012269
0.00146489
0.00134908
0.0012688
0.00121377
0.00117318
0.00112969
0.00108894
0.00108873
0.00112676
0.00125937
0.00158619
0.00146869
0.00137254
0.00129351
0.00123389
0.00118312
0.0011395
0.00112674
0.00115103
0.00127092
0.00169402
0.00155816
0.00146036
0.00137878
0.00130572
0.00124933
0.00120318
0.00118247
0.00119607
0.00128726
0.00173388
0.00159885
0.00152615
0.00145675
0.00138557
0.00133058
0.00128559
0.00125882
0.00126828
0.00134367
0.0017285
0.00164567
0.00159729
0.00153283
0.0014747
0.00143512
0.00139262
0.00135703
0.00136947
0.00147499
0.00174671
0.00174055
0.00168579
0.00163577
0.00160824
0.00159358
0.00155708
0.00148126
0.00148178
0.00154756
0.00195971
0.0018858
0.0017373
0.00164069
0.00154197
0.00144396
0.00136567
0.00132348
0.00132868
0.00138033
0.00161384
0.00157537
0.0014886
0.0014042
0.00130861
0.00121719
0.00117189
0.00117367
0.00121457
0.00136336
0.00146434
0.0013617
0.00127702
0.00119766
0.0011256
0.00107995
0.00107742
0.00109484
0.00116522
0.00137404
0.00143117
0.0013061
0.00120158
0.00112581
0.00107092
0.00104255
0.00104499
0.00106633
0.00114248
0.00137901
0.00146886
0.00134052
0.00122554
0.00114229
0.00108415
0.00104917
0.00104797
0.00106353
0.00113093
0.00134873
0.00156848
0.00144703
0.00132478
0.00123119
0.00116348
0.00111617
0.00109616
0.00110082
0.00114029
0.00129461
0.00167894
0.00155837
0.00143497
0.00134079
0.00126891
0.00121792
0.00118023
0.0011643
0.00117891
0.00126851
0.00180166
0.0016696
0.00154964
0.00146352
0.00139855
0.00135017
0.0013132
0.00126222
0.00125646
0.00129758
0.0019221
0.00177027
0.00166893
0.00160253
0.00155582
0.00152369
0.00149291
0.00142325
0.00137292
0.00137505
0.00201603
0.00186862
0.00180105
0.00176255
0.00174205
0.00174395
0.00172677
0.00166587
0.00154951
0.00149881
0.0023582
0.00216132
0.0020072
0.00188231
0.00171433
0.00154517
0.0014828
0.00149289
0.00159073
0.00189377
0.0020151
0.00184809
0.00171142
0.00158403
0.00143778
0.00134322
0.00133634
0.00137319
0.00155191
0.0019612
0.00186692
0.0017014
0.00154471
0.00139995
0.001289
0.00123819
0.00124419
0.00129606
0.00148588
0.00186818
0.00172944
0.00154803
0.00140307
0.00129767
0.00122539
0.00119485
0.0012045
0.00125228
0.00140459
0.00173036
0.00167374
0.00149877
0.00137433
0.00128484
0.00122245
0.00119238
0.00119908
0.00123701
0.00134818
0.00161076
0.00171825
0.00156041
0.00144674
0.00136313
0.00130683
0.00126683
0.00126087
0.00127577
0.0013407
0.00153024
0.00184097
0.00168911
0.00157945
0.00149991
0.00144518
0.00140883
0.00137956
0.00137326
0.00139724
0.00152087
0.00199377
0.00183592
0.00173573
0.00166951
0.00162839
0.00160669
0.00157786
0.00152599
0.00151121
0.00156849
0.00216085
0.00199982
0.00191793
0.0018699
0.00185349
0.00185694
0.00184097
0.00178057
0.00168351
0.00168799
0.002334
0.00217738
0.00211657
0.00209274
0.00211957
0.00217006
0.00217214
0.00211308
0.00193911
0.00187437
0.0031735
0.00286882
0.00266474
0.00243748
0.00220524
0.00210197
0.00210504
0.00217006
0.00239083
0.00286056
0.00275149
0.00250343
0.00228424
0.00207229
0.00192039
0.00187184
0.00189703
0.00202373
0.00237624
0.00290568
0.00266949
0.00234127
0.00206504
0.00186886
0.00174923
0.00172806
0.00177438
0.00193044
0.00229007
0.00279459
0.00256642
0.00219885
0.00195076
0.00178247
0.00168629
0.00167507
0.00172444
0.00187551
0.00222031
0.00267609
0.00245427
0.00214379
0.00192454
0.00177095
0.00168416
0.00167345
0.00171721
0.00185319
0.00215856
0.0025895
0.00242797
0.00217414
0.00199202
0.00186199
0.00178957
0.00177341
0.00179711
0.00187874
0.00212163
0.00254356
0.00252936
0.00232101
0.00215261
0.00204027
0.00198212
0.00196432
0.00197116
0.00199801
0.00214228
0.00253261
0.00272007
0.00251396
0.00236679
0.00229014
0.00226014
0.00225574
0.00224996
0.00222333
0.00226301
0.00255234
0.00296217
0.00275514
0.00264369
0.00260091
0.00260154
0.00262428
0.00263014
0.0025785
0.00251554
0.00267038
0.00324373
0.00304001
0.00296328
0.00294629
0.0029803
0.00305381
0.00311601
0.00309982
0.00297674
0.00302308
0.00386994
0.00349642
0.00318857
0.00292141
0.00277706
0.00277294
0.00285338
0.003071
0.00342279
0.0039255
0.00352499
0.00318531
0.00286237
0.00263879
0.00253071
0.00253811
0.00266441
0.00294274
0.00335955
0.0039018
0.00344103
0.00299802
0.00266791
0.00247641
0.00239265
0.00240975
0.00255118
0.00283811
0.00325586
0.00375625
0.00330583
0.00287051
0.00259054
0.00241852
0.00234409
0.00235996
0.00249165
0.00275597
0.00315037
0.00359517
0.0032326
0.00283585
0.00258468
0.00241821
0.00234522
0.00235406
0.00247268
0.0027127
0.00307354
0.00350332
0.00324113
0.00291997
0.00270946
0.00253908
0.00245209
0.00243963
0.00251512
0.0027045
0.00304649
0.00347542
0.00339176
0.00314081
0.0029269
0.00274534
0.00264462
0.00262146
0.0026638
0.00278475
0.00307535
0.0035107
0.00365649
0.00342091
0.00320092
0.00302883
0.00293794
0.00291713
0.00295407
0.00302154
0.00319521
0.00358257
0.00400186
0.0037507
0.0035314
0.00337987
0.00331634
0.00331543
0.00338561
0.0034666
0.0035493
0.00379592
0.00442707
0.00413389
0.00391839
0.00379485
0.00375028
0.00378184
0.0039036
0.00405905
0.00419077
0.00434518
0.00400811
0.00361907
0.00327973
0.00305866
0.0029793
0.00301703
0.00318114
0.00346315
0.00383414
0.0043051
0.0037296
0.00333612
0.00299199
0.00280764
0.00274853
0.00279679
0.00298131
0.00327379
0.00364589
0.0041109
0.00358919
0.00312103
0.00281183
0.00265759
0.00260993
0.00265487
0.00283708
0.00312631
0.0034902
0.00393376
0.00344497
0.00301592
0.00274741
0.00259974
0.00254992
0.00258378
0.00274532
0.00301221
0.00336122
0.00376821
0.00339544
0.00299417
0.002748
0.00259563
0.002539
0.00256228
0.00270812
0.0029556
0.00329108
0.00369387
0.00344568
0.00310382
0.00289822
0.00270648
0.00261474
0.0026066
0.00272088
0.0029487
0.00327919
0.00368608
0.00362841
0.00335053
0.00314192
0.00291311
0.00277903
0.00275347
0.00283634
0.00302877
0.00333323
0.00375024
0.00391111
0.00367149
0.00343556
0.00318703
0.00304725
0.00301937
0.00310094
0.00326218
0.00349484
0.0038619
0.00429764
0.00404011
0.00376333
0.00352248
0.00341646
0.00340695
0.00352335
0.00370314
0.00389344
0.00414942
0.00477898
0.00445398
0.00414425
0.00393876
0.00385883
0.00387142
0.00402595
0.00426275
0.00450063
0.00469249
0.00231733
0.00222303
0.00213098
0.00207667
0.00205751
0.00205303
0.00206253
0.00212498
0.00224518
0.00239992
0.00223415
0.00209947
0.00200561
0.00196907
0.00196518
0.00196414
0.00197806
0.0020471
0.00215609
0.00230084
0.00218901
0.0020278
0.00194948
0.00191522
0.00190429
0.00190546
0.00193593
0.00200492
0.00210281
0.00222135
0.00214471
0.00199508
0.00192679
0.00189382
0.00188133
0.00188364
0.00191874
0.00197836
0.00205648
0.00213723
0.00213104
0.00198671
0.00192535
0.00189292
0.00187914
0.00188035
0.00191135
0.00195701
0.00202054
0.00209972
0.00214851
0.00202254
0.0019785
0.00192919
0.00189512
0.00189044
0.00191192
0.00195264
0.0020179
0.00210053
0.00222206
0.00210831
0.00208199
0.00200867
0.00193151
0.00191672
0.0019296
0.00197083
0.00203839
0.00213695
0.0023624
0.002226
0.0022177
0.00210849
0.00199217
0.00196145
0.00197305
0.00201812
0.00208346
0.00219214
0.00254198
0.00240268
0.00236284
0.00220565
0.0020789
0.002044
0.00205758
0.00210799
0.00216896
0.00226451
0.00273953
0.00262836
0.00245799
0.00229806
0.002186
0.00214748
0.0021491
0.00219327
0.00226931
0.00234201
0.00129487
0.00129444
0.00129698
0.00129178
0.0012467
0.00120246
0.00118984
0.00120886
0.00123147
0.00125703
0.00127405
0.00124324
0.00122264
0.00122317
0.00119687
0.00115923
0.00115758
0.00117847
0.0012047
0.00123921
0.00126503
0.00120844
0.00118233
0.0011671
0.00114261
0.00113039
0.00113606
0.00115978
0.00118644
0.00120868
0.00124365
0.0011813
0.00115283
0.00113127
0.00111482
0.00111063
0.00111697
0.00113593
0.00115774
0.00117315
0.00122989
0.00117008
0.00114296
0.00112367
0.00111253
0.00110855
0.00110848
0.00111662
0.00113274
0.0011525
0.00122668
0.00116922
0.00114593
0.00112937
0.00111979
0.00111516
0.00111302
0.00111772
0.00113436
0.00115583
0.00124263
0.00119253
0.00117827
0.00115334
0.00113725
0.00113469
0.00113503
0.00114137
0.00115796
0.00117923
0.00128517
0.00123274
0.00123301
0.00119691
0.00116058
0.00115181
0.00115714
0.00116454
0.00117841
0.00119934
0.00135567
0.0012965
0.0012834
0.00123657
0.00119318
0.00117022
0.00117406
0.00118288
0.00119463
0.00121571
0.00142532
0.00138035
0.00130243
0.00125557
0.00121951
0.00119368
0.00119666
0.00120805
0.00121881
0.00123321
0.000879764
0.000886199
0.000899709
0.000901041
0.000842144
0.000822681
0.000826171
0.000833679
0.000837011
0.000845501
0.000880298
0.000873282
0.000871732
0.000876835
0.000821514
0.000801942
0.000804726
0.000813334
0.000821333
0.000839497
0.000889251
0.000871353
0.000859722
0.000839835
0.000794417
0.000785092
0.000790372
0.000802749
0.000815861
0.000832805
0.000880993
0.000850831
0.000833678
0.000804777
0.00077883
0.000773585
0.000778689
0.000793647
0.00080958
0.000826085
0.000854578
0.000828666
0.000810484
0.000788819
0.00077665
0.000773224
0.000773764
0.000782516
0.000796027
0.000810245
0.000845278
0.000818745
0.00080121
0.000787621
0.000780583
0.000777623
0.000777234
0.000783624
0.000794443
0.000806146
0.000846519
0.000822798
0.000811003
0.000800553
0.000795583
0.000793362
0.000793048
0.000798508
0.000809204
0.000822037
0.000861478
0.000845664
0.000838086
0.000822031
0.000813736
0.000810377
0.000809256
0.000811757
0.000818195
0.000831088
0.000891202
0.000888426
0.000876694
0.000853635
0.000832116
0.000823639
0.000821357
0.000820977
0.000823708
0.000834998
0.000943666
0.000932042
0.000893414
0.00087252
0.000859169
0.000838177
0.000837332
0.00084016
0.00084177
0.000845535
0.000696975
0.000692341
0.00069307
0.000701732
0.000682581
0.000660283
0.000664016
0.000674258
0.000677901
0.000683703
0.000695796
0.000685826
0.000686508
0.000691209
0.000662206
0.000645126
0.000646957
0.000656704
0.000663324
0.000677756
0.00069711
0.000686089
0.000682329
0.000679266
0.000646553
0.000633203
0.000634775
0.000645894
0.000657154
0.000673833
0.000701406
0.000688329
0.000679508
0.000666699
0.000636146
0.000625448
0.000625716
0.000634594
0.000648479
0.000666116
0.000707984
0.000688236
0.000674063
0.000654264
0.000632099
0.000625463
0.000624857
0.000629378
0.000639439
0.000654023
0.000701603
0.000679882
0.000661289
0.00064347
0.000631566
0.000627141
0.000626498
0.000631093
0.000639596
0.000651981
0.00068547
0.000668673
0.000655377
0.000644049
0.000636786
0.00063396
0.000633265
0.000636633
0.000644634
0.000656751
0.000688618
0.000678558
0.000668247
0.000660108
0.000654358
0.000646826
0.000643741
0.000645039
0.000654015
0.000668224
0.000714245
0.000709964
0.000694812
0.000682255
0.000671945
0.000659717
0.000655076
0.000656643
0.00066275
0.000673744
0.000758629
0.000738839
0.000718585
0.000705563
0.000695691
0.000676523
0.000670147
0.000673698
0.00067733
0.000680988
0.000610779
0.000604228
0.000597019
0.000593293
0.000585021
0.000575692
0.000579117
0.000589973
0.000595505
0.000601568
0.000607452
0.000597045
0.00058959
0.000587319
0.000577011
0.000567565
0.000568651
0.000576958
0.000584397
0.000595267
0.000606881
0.000593887
0.000585206
0.000582832
0.000570406
0.000560857
0.000560594
0.000567043
0.000576015
0.000588382
0.000605545
0.000592778
0.000585047
0.000580366
0.000565925
0.000557203
0.000555975
0.000559067
0.000566258
0.000575962
0.000606347
0.000594347
0.000587462
0.000578791
0.000564296
0.000558157
0.000556894
0.000558079
0.000562889
0.000570214
0.000612887
0.000600131
0.000588182
0.000575768
0.000564575
0.000560031
0.000558726
0.00055992
0.000564174
0.000570659
0.000612349
0.000598096
0.000585488
0.000574223
0.00056704
0.000563986
0.000562677
0.000562713
0.000566845
0.000574509
0.000609186
0.000598805
0.00058812
0.000581642
0.000578502
0.000573787
0.000569075
0.000568496
0.000574583
0.00058472
0.000624502
0.000614845
0.000605182
0.000599507
0.000594337
0.000583624
0.000576803
0.000576943
0.000583631
0.000591779
0.000653628
0.000639827
0.000628173
0.000617351
0.000610634
0.000598903
0.000586129
0.000587814
0.000594927
0.000598924
0.000569704
0.000563523
0.00055711
0.000550911
0.000545247
0.000541797
0.000544307
0.000550026
0.000555172
0.000560539
0.000568038
0.000560067
0.000553123
0.000547001
0.000541469
0.000537554
0.000538132
0.000542127
0.000547229
0.000554655
0.00056686
0.000557954
0.000550029
0.000544034
0.000538106
0.000533852
0.000533434
0.000536432
0.000541147
0.000548384
0.000566091
0.000556751
0.000548643
0.000542558
0.000535861
0.000531785
0.000530815
0.000532173
0.000535894
0.000541128
0.000566496
0.000557125
0.000549302
0.000542805
0.000535857
0.000532401
0.000531365
0.000531713
0.000534255
0.000537908
0.000571122
0.00056106
0.000552073
0.000543373
0.000536916
0.000534161
0.000533124
0.000533271
0.000535448
0.000539105
0.000573001
0.000562958
0.000552812
0.000544578
0.000540212
0.000538464
0.000536586
0.00053612
0.000538529
0.000543256
0.000571978
0.000564213
0.000554948
0.000550271
0.000548968
0.000546284
0.000541817
0.000540758
0.000543503
0.000548727
0.000588259
0.000575923
0.00056662
0.000562901
0.000560253
0.000555128
0.000547917
0.000546424
0.000549285
0.000554146
0.000597919
0.000588903
0.000580961
0.000574315
0.000569295
0.000564004
0.000554793
0.000553029
0.000556556
0.000559869
0.000565522
0.000559654
0.000555257
0.000549745
0.000543441
0.000539934
0.00054232
0.000547258
0.000550497
0.000554787
0.000565356
0.000557121
0.000551322
0.000545722
0.000539756
0.000535979
0.000536796
0.000539882
0.000543586
0.000550077
0.00056544
0.000556528
0.000549312
0.000542794
0.000536498
0.000532793
0.000532567
0.000534999
0.000539063
0.000545983
0.000565503
0.000556554
0.000547932
0.000540345
0.000534044
0.000530731
0.000529972
0.000531339
0.00053466
0.000539709
0.000566365
0.000556393
0.000546978
0.000539358
0.000533626
0.000530671
0.000529709
0.000530198
0.000532472
0.000535954
0.000567734
0.000557177
0.000547434
0.000539937
0.000534925
0.000532548
0.000531594
0.000531891
0.000534091
0.000537493
0.0005692
0.000558736
0.000549925
0.000542402
0.000538735
0.000536684
0.000535414
0.000535517
0.000538039
0.000542265
0.00057434
0.000563206
0.000554485
0.000548715
0.000546238
0.000543265
0.000540571
0.000540235
0.000542339
0.000546864
0.000586278
0.000575725
0.000566651
0.000560268
0.000555875
0.000551655
0.00054649
0.000545812
0.000547149
0.000550397
0.000590946
0.000583193
0.000576063
0.000569829
0.000563923
0.000558641
0.000552593
0.00055261
0.000554169
0.000555692
0.159512
0.160146
0.159745
0.159643
0.1613
0.1613
0.159642
0.159743
0.160147
0.159516
0.160145
0.161196
0.161243
0.161141
0.161293
0.161292
0.161142
0.161246
0.161193
0.160137
0.159743
0.161243
0.161229
0.160956
0.160815
0.160821
0.160956
0.161217
0.161233
0.159729
0.159642
0.161141
0.160955
0.160665
0.160548
0.160528
0.160645
0.160936
0.161126
0.159626
0.1613
0.161292
0.16082
0.16053
0.160407
0.160404
0.160522
0.160794
0.161277
0.161288
0.161302
0.161286
0.160795
0.160522
0.160404
0.160404
0.160522
0.160795
0.161277
0.161279
0.159631
0.161126
0.160935
0.160641
0.160522
0.160521
0.160635
0.160906
0.161092
0.159496
0.15973
0.161232
0.161214
0.160932
0.16079
0.160742
0.160871
0.161031
0.161131
0.159635
0.160137
0.16119
0.161232
0.1611
0.161228
0.161097
0.161009
0.161137
0.161112
0.160059
0.159504
0.160115
0.159703
0.159506
0.161179
0.161195
0.159518
0.159634
0.160059
0.159415
0.159934
0.160028
0.159822
0.15972
0.159968
0.159968
0.15972
0.159822
0.160029
0.159937
0.160028
0.159966
0.159693
0.159521
0.159366
0.159366
0.159522
0.159694
0.159965
0.160025
0.159822
0.159693
0.159294
0.159122
0.159046
0.159048
0.159122
0.159288
0.159689
0.159817
0.15972
0.159521
0.159122
0.158945
0.158867
0.158859
0.158938
0.159114
0.159515
0.159714
0.159968
0.159366
0.159047
0.15886
0.158775
0.158774
0.158857
0.159037
0.15936
0.159964
0.159968
0.159362
0.159038
0.158857
0.158774
0.158774
0.158857
0.159038
0.15936
0.159967
0.159715
0.159515
0.159114
0.158937
0.158857
0.158859
0.158939
0.159129
0.159536
0.159807
0.159817
0.159688
0.159287
0.159116
0.15904
0.159061
0.159148
0.159493
0.159836
0.159899
0.160025
0.159962
0.159688
0.159531
0.159389
0.159566
0.159672
0.159832
0.160091
0.160101
0.159933
0.160035
0.15983
0.159804
0.16011
0.160095
0.159801
0.159899
0.160101
0.160001
0.158347
0.158139
0.158062
0.158001
0.157884
0.157884
0.158002
0.158062
0.158139
0.158347
0.158139
0.157868
0.15773
0.157651
0.157605
0.157605
0.157651
0.15773
0.157868
0.158147
0.158062
0.15773
0.157565
0.157472
0.157429
0.157429
0.157472
0.157569
0.157736
0.158069
0.158001
0.157651
0.157472
0.157368
0.157319
0.157322
0.157371
0.157476
0.157656
0.158009
0.157884
0.157605
0.157429
0.157322
0.157269
0.157269
0.157322
0.157432
0.15761
0.157891
0.157884
0.157609
0.157432
0.157322
0.157269
0.157269
0.157322
0.157432
0.157611
0.157892
0.158008
0.157656
0.157476
0.157371
0.157322
0.157323
0.157372
0.157476
0.157649
0.15798
0.158069
0.157736
0.15757
0.157477
0.157434
0.157429
0.157471
0.157519
0.157677
0.158028
0.158147
0.157876
0.157737
0.15765
0.157605
0.157558
0.157601
0.157675
0.15781
0.158101
0.158356
0.158143
0.158066
0.157976
0.157834
0.157827
0.157972
0.158029