/*--------------------------------*- C++ -*----------------------------------*\
  =========                 |
  \\      /  F ield         | OpenFOAM: The Open Source CFD Toolbox
   \\    /   O peration     | Website:  https://openfoam.org
    \\  /    A nd           | Version:  9
     \\/     M anipulation  |
\*---------------------------------------------------------------------------*/
FoamFile
{
    format      ascii;
    class       volScalarField;
    location    "1";
    object      f6.gas;
}
// * * * * * * * * * * * * * * * * * * * * * * * * * * * * * * * * * * * * * //

dimensions      [0 0 0 0 0 0 0];

internalField   nonuniform List<scalar> 
137980
(
0.00803062
0.00916656
0.00794934
0.00754964
0.00781798
0.00791248
0.00809037
0.00841497
0.00866458
0.00881109
0.00917441
0.00958569
0.0087172
0.00819969
0.0082253
0.00783717
0.00775588
0.00808547
0.00895047
0.00928286
0.0079328
0.00800474
0.00929958
0.00862927
0.00874288
0.0086609
0.00829254
0.0083991
0.00855356
0.00887593
0.00752639
0.00719692
0.00759859
0.00830148
0.00861592
0.00920807
0.00880769
0.00771047
0.00703067
0.00700556
0.0066944
0.00665074
0.00712184
0.00776982
0.00819566
0.00896815
0.00915204
0.00853295
0.00678713
0.00657505
0.00638517
0.00654508
0.00691254
0.00739951
0.00787587
0.00846067
0.00884956
0.00860635
0.00689802
0.00685875
0.00643018
0.0069277
0.00768585
0.00757012
0.00761741
0.00819144
0.00857056
0.00815818
0.00693193
0.00756169
0.00703988
0.00802486
0.00783804
0.00724947
0.00711226
0.00738383
0.00872716
0.00862444
0.00710528
0.00774604
0.00713914
0.00780647
0.00737576
0.00658119
0.00625365
0.00635923
0.00665567
0.0089287
0.00814842
0.00746224
0.00747438
0.00783385
0.00709166
0.00633588
0.00602647
0.0061872
0.00617132
0.00677135
0.00784172
0.00756718
0.00486191
0.00549366
0.00547197
0.00531613
0.00527889
0.00527779
0.00528265
0.00538127
0.00538231
0.00516395
0.00560641
0.00561474
0.00569833
0.00568587
0.00562027
0.00564178
0.00591214
0.00601073
0.00586597
0.00551528
0.00542258
0.0054442
0.00573624
0.00602397
0.0059695
0.00602783
0.00613202
0.00615967
0.00606295
0.00586042
0.00527514
0.00535063
0.00553639
0.00577144
0.0058076
0.00598884
0.00599793
0.00594944
0.00579181
0.00555459
0.00514573
0.00523556
0.00545789
0.00555895
0.00551964
0.00565133
0.00568433
0.00560126
0.00548305
0.00526849
0.00507053
0.00521001
0.0053951
0.00548588
0.0054255
0.00537584
0.00544987
0.00541175
0.00527764
0.00529072
0.00518848
0.00540667
0.00554643
0.0054432
0.00543361
0.00541569
0.00549426
0.00540995
0.00525406
0.00531849
0.00547709
0.00551767
0.0054642
0.00543544
0.00549051
0.00542658
0.00563049
0.00564999
0.00545263
0.00529514
0.00542663
0.00542876
0.00534253
0.00530892
0.00539698
0.00543439
0.00525449
0.0055111
0.00551741
0.00534565
0.00510933
0.00502983
0.00498562
0.00508864
0.00523979
0.00535371
0.0051897
0.00535132
0.00537184
0.00526604
0.00427511
0.00427951
0.00438863
0.00439537
0.00435974
0.00431362
0.00430039
0.00430919
0.00433487
0.00437812
0.00434346
0.00450622
0.00452282
0.00451546
0.00448161
0.00442588
0.00441498
0.00441261
0.00440275
0.00441862
0.00457746
0.00458325
0.00455951
0.00453856
0.00449735
0.00444188
0.00442449
0.00440724
0.00439936
0.0044403
0.00460111
0.00460116
0.00456188
0.00452566
0.00444177
0.00440847
0.00437231
0.00436383
0.00440087
0.00444679
0.00465671
0.00457002
0.00447823
0.00445697
0.00444632
0.00440207
0.00436615
0.00436316
0.00440146
0.00446786
0.00449944
0.00450734
0.0045372
0.00453952
0.00448715
0.00442175
0.00440678
0.00442851
0.00448587
0.00447302
0.0045127
0.00458771
0.00462069
0.00455531
0.00446596
0.0044441
0.00447842
0.00453732
0.00453097
0.00451669
0.00461705
0.00470171
0.00461276
0.0044541
0.00443321
0.00447299
0.00456227
0.00456082
0.00452075
0.00451455
0.00466891
0.00460361
0.00436363
0.00441497
0.00443061
0.00455522
0.00456834
0.00454092
0.00438765
0.00439855
0.00437191
0.00424332
0.00430346
0.00433796
0.00439276
0.00455703
0.00452983
0.00437937
0.00416858
0.00416883
0.00403801
0.00405282
0.00413743
0.00421615
0.00425646
0.00423067
0.00419674
0.00428413
0.00431809
0.00429684
0.00406714
0.00406676
0.00411909
0.00415336
0.00413052
0.00419461
0.00428405
0.00435777
0.00434581
0.00432507
0.00406328
0.00404958
0.00405776
0.00406801
0.00431015
0.00441327
0.0044099
0.0043895
0.00435057
0.00432702
0.00408499
0.0040701
0.00411662
0.00440696
0.00446604
0.00445391
0.00442196
0.00435602
0.00430677
0.00430533
0.00426427
0.00429733
0.0044267
0.00450747
0.00449253
0.0044509
0.00435379
0.00427161
0.00425557
0.00426201
0.00441558
0.00446221
0.00456375
0.00454392
0.00448306
0.00434689
0.00425512
0.00423892
0.0042441
0.00425318
0.00460554
0.00466346
0.00463703
0.00452952
0.00432007
0.00424273
0.00422532
0.00423554
0.00424685
0.00422377
0.00476792
0.00473781
0.00455377
0.00428457
0.00424233
0.00422306
0.00423566
0.00427606
0.00424328
0.00409584
0.00478825
0.0045855
0.00421653
0.0042292
0.00425081
0.00426324
0.00431487
0.00431441
0.0041697
0.00406068
0.00453645
0.00402694
0.00419453
0.00428584
0.00431669
0.00432502
0.00439186
0.00423752
0.00420665
0.00413724
0.00402616
0.0039542
0.00386636
0.00387675
0.0039233
0.00401183
0.00411135
0.00416279
0.00416316
0.00416167
0.00414565
0.0040818
0.00403711
0.00406195
0.00408812
0.00415768
0.00420512
0.00418694
0.0041519
0.00414892
0.00419918
0.00409058
0.00406012
0.00405798
0.00420391
0.00424349
0.00422974
0.00417569
0.00409962
0.00408959
0.00426406
0.00405296
0.00407789
0.00419641
0.00425932
0.00424929
0.00420878
0.00410704
0.00406503
0.00406662
0.00443905
0.0041903
0.00416439
0.00423222
0.00427513
0.00425268
0.00417037
0.00408284
0.00406361
0.00406965
0.00452989
0.00433868
0.00434866
0.00436205
0.00432547
0.00424542
0.0041147
0.00407169
0.0040871
0.00407704
0.00467872
0.0045812
0.00452823
0.00440082
0.00424058
0.00410878
0.00406514
0.00408171
0.00411057
0.00405236
0.00470657
0.00464943
0.0044463
0.00408484
0.00407468
0.00405079
0.00405568
0.00414372
0.00411884
0.00397399
0.00466278
0.00434768
0.00386828
0.00394861
0.00406652
0.00406983
0.00417231
0.00416759
0.00411131
0.00394033
0.00454692
0.00355129
0.00371617
0.00404729
0.00417212
0.00419774
0.00420464
0.00417632
0.00408396
0.00392611
0.00301395
0.00305018
0.00312006
0.00331705
0.00372064
0.00394264
0.00404065
0.00407565
0.00406986
0.00405962
0.0030362
0.00311533
0.00334295
0.0037376
0.00394817
0.00404746
0.00408513
0.00408221
0.0040642
0.00402306
0.00311188
0.00322025
0.00355641
0.00386457
0.0040051
0.00408114
0.00409177
0.00408001
0.00404522
0.00396986
0.00320666
0.00337554
0.00369418
0.00391892
0.00405018
0.00408917
0.00408998
0.00408053
0.0040444
0.00395919
0.00354455
0.00376069
0.00395323
0.00408537
0.00414529
0.00415139
0.00414071
0.00411078
0.00404797
0.00394227
0.00434205
0.00434142
0.00432606
0.00430643
0.00428053
0.00421965
0.00416265
0.00411439
0.00399833
0.00385872
0.00449663
0.00445558
0.00440527
0.0043589
0.00430339
0.00422109
0.00415744
0.00404079
0.00383994
0.0036929
0.00442199
0.00439086
0.00432521
0.00425501
0.00413936
0.00404877
0.00393855
0.00373281
0.00361564
0.00355208
0.00416969
0.0041246
0.00400251
0.00384001
0.00376838
0.00367009
0.00356833
0.00352561
0.00350667
0.00350523
0.00353664
0.00326697
0.00323367
0.00330653
0.00342527
0.00340356
0.00339837
0.00343171
0.00346793
0.00349358
0.00301993
0.00301654
0.00298738
0.00288026
0.00288458
0.0030484
0.00357479
0.00388343
0.00390818
0.00391593
0.0028804
0.00294518
0.00293222
0.00286625
0.00288514
0.00307957
0.00355092
0.00381234
0.00385699
0.00386897
0.00259196
0.00272419
0.00274196
0.00276155
0.002859
0.00317439
0.00354305
0.0037407
0.00376932
0.00375353
0.00257342
0.00260355
0.00263731
0.00270507
0.00288602
0.00317539
0.00339805
0.00355045
0.00360335
0.00360826
0.00259719
0.00259544
0.0026154
0.0026681
0.00279289
0.00301418
0.00324061
0.00340019
0.00347249
0.0035064
0.00285565
0.00281209
0.00283024
0.00289305
0.00304937
0.00323616
0.00336179
0.00342935
0.00346333
0.00348468
0.00350689
0.00339721
0.00337781
0.00340234
0.00346037
0.00349419
0.00349504
0.0034929
0.0034826
0.0034778
0.00376716
0.00369413
0.00365467
0.00364309
0.00361308
0.00358906
0.00353825
0.00351196
0.00344677
0.00342801
0.00377862
0.00374135
0.00370498
0.00364689
0.00355638
0.00348265
0.00339021
0.00334439
0.00325714
0.00324679
0.00365663
0.00361152
0.00343092
0.00320418
0.00308526
0.00305859
0.00307801
0.0030495
0.00298959
0.00296559
0.00253502
0.00237485
0.00221366
0.00222626
0.00233503
0.00277196
0.00327126
0.00337332
0.00336922
0.00346774
0.00248271
0.00242049
0.00228451
0.00225798
0.00229237
0.00256965
0.0031372
0.00331816
0.00325579
0.00333162
0.00234327
0.00239194
0.00234756
0.00226647
0.00228051
0.0025033
0.00302852
0.003188
0.00317881
0.00309959
0.00225808
0.00231487
0.00229693
0.00223225
0.00224851
0.00248393
0.00289606
0.00297856
0.00293773
0.00282702
0.00209014
0.00212526
0.00213255
0.00213592
0.00220424
0.00249863
0.00272085
0.00271908
0.00267728
0.00273
0.00220048
0.00209166
0.00208493
0.00210373
0.00218045
0.00238261
0.00246945
0.00249458
0.00258872
0.00274682
0.00255142
0.00224559
0.00214393
0.0021429
0.00217205
0.00222667
0.00231915
0.00241502
0.00261389
0.00277449
0.00294821
0.00268919
0.00244766
0.00230858
0.00227974
0.00229245
0.00233104
0.00242089
0.00265483
0.00278212
0.00311998
0.00299201
0.00285326
0.00272301
0.00262331
0.00255468
0.00255978
0.00260021
0.00272199
0.0027816
0.00317241
0.00311218
0.00304984
0.00296854
0.0029032
0.00282923
0.00276905
0.00277015
0.00279146
0.00279272
0.00201779
0.00191632
0.00183351
0.00181713
0.0018932
0.00200156
0.00208077
0.00213701
0.00239353
0.00256285
0.00207894
0.00198943
0.00183645
0.00180095
0.00186032
0.0019402
0.00198136
0.00197227
0.00202652
0.00220588
0.00206081
0.0019947
0.0018458
0.001796
0.00184583
0.00189821
0.00191497
0.00189118
0.00192072
0.0020262
0.00201053
0.00193097
0.00180953
0.00179056
0.00181764
0.0018289
0.00181219
0.00180709
0.00187877
0.00196881
0.00191389
0.00184477
0.00180024
0.00179251
0.00179011
0.00177506
0.00176939
0.00178902
0.00189364
0.00199326
0.00196121
0.00188346
0.0018451
0.00181881
0.00179453
0.00177387
0.00177292
0.00183906
0.00198613
0.00212089
0.00217742
0.00203918
0.00197408
0.00192816
0.00188819
0.00184552
0.00183664
0.00192088
0.00208672
0.00225364
0.00254255
0.00233873
0.00215578
0.00205636
0.00200876
0.00194389
0.00191081
0.00201232
0.00218461
0.00231913
0.00271996
0.00258838
0.00243299
0.00226201
0.00214257
0.00205922
0.0019725
0.00211199
0.00224528
0.00237178
0.00283596
0.00273923
0.00264256
0.00250186
0.00231927
0.0021499
0.00206473
0.00217611
0.00225609
0.00232815
0.00215444
0.00189774
0.00178823
0.00166081
0.00163106
0.0016377
0.00162095
0.00160168
0.00163068
0.00170844
0.00211551
0.00191091
0.00172897
0.00161981
0.00161407
0.00161876
0.00160143
0.00157453
0.00160165
0.00167651
0.00202236
0.00191732
0.00173556
0.00164467
0.00161685
0.00160907
0.00157823
0.00156021
0.0015876
0.00166222
0.00189622
0.00184535
0.00172512
0.00166515
0.00162642
0.00160425
0.00156379
0.00155698
0.00158805
0.00166452
0.0019115
0.00182661
0.00174165
0.00169403
0.00164601
0.0016096
0.00156985
0.00157446
0.00160852
0.00168999
0.00223364
0.00200658
0.00186505
0.00178283
0.00171623
0.00166715
0.00161154
0.00161
0.00163828
0.00173434
0.00252803
0.00237582
0.00220327
0.00204823
0.00192
0.0018179
0.00170722
0.00166331
0.00168295
0.0017953
0.00264624
0.00255029
0.00243835
0.00229277
0.00214346
0.00201776
0.00186318
0.00174791
0.00174748
0.00185864
0.00278987
0.0026903
0.00260065
0.0025097
0.00235931
0.00223972
0.00207398
0.00186824
0.0018085
0.0018991
0.00279878
0.00270479
0.00260477
0.00253627
0.00242402
0.00232287
0.00222666
0.00202054
0.00189186
0.00191926
0.00218208
0.00206714
0.00187629
0.00167051
0.00154642
0.00149889
0.00149438
0.00150536
0.00153915
0.00160091
0.00201342
0.00185046
0.00165181
0.0015284
0.00147075
0.00144969
0.00145286
0.00147032
0.00151055
0.00159073
0.00181002
0.00167213
0.00155481
0.00148397
0.0014485
0.00143605
0.00144132
0.00146263
0.00150568
0.00158751
0.0017703
0.00164532
0.00155271
0.00150655
0.00147988
0.00146413
0.00146864
0.00149261
0.00153374
0.00161439
0.00198263
0.00180614
0.00169988
0.00163234
0.00158522
0.00154744
0.00154168
0.00155315
0.00158073
0.00164044
0.00227416
0.00207521
0.0019217
0.00181498
0.00173671
0.00167936
0.00163456
0.00163213
0.00164416
0.00168201
0.00251755
0.00232956
0.00214968
0.00200209
0.00189207
0.00180973
0.00175077
0.00171402
0.00171861
0.00175014
0.00263182
0.00246189
0.00229849
0.00214787
0.0020068
0.00188955
0.00182314
0.00178069
0.00178432
0.00182835
0.00258962
0.00243523
0.00228259
0.00214476
0.00201771
0.00190899
0.0018491
0.00182291
0.00183484
0.00192095
0.00240652
0.00229069
0.0021845
0.00208889
0.00199762
0.00192823
0.00188869
0.00186953
0.00189371
0.00201622
0.00215622
0.00200635
0.00182536
0.00167437
0.00157796
0.00151927
0.00149874
0.0015063
0.00153436
0.00159159
0.00187327
0.00174902
0.00161867
0.00152025
0.00146004
0.00142011
0.00141521
0.00142729
0.00146554
0.00155701
0.00175
0.00162021
0.00152588
0.00146267
0.00142222
0.00139233
0.00138455
0.00139679
0.00144056
0.0015502
0.00172665
0.00160791
0.00152055
0.00146407
0.00143171
0.00139796
0.00137845
0.00138961
0.00143605
0.00157049
0.00182035
0.00169197
0.00160121
0.00153911
0.00149294
0.00144683
0.00140741
0.00141058
0.00145588
0.00160231
0.00194676
0.0018162
0.00171065
0.00162347
0.00155773
0.00150306
0.00145951
0.00145242
0.00148201
0.00161362
0.00205964
0.00191093
0.00180375
0.00171432
0.00163494
0.00157489
0.00152785
0.00151274
0.00153096
0.00163327
0.00210201
0.00195502
0.00187463
0.00179807
0.00172103
0.00166253
0.00161683
0.00159575
0.00160979
0.00169536
0.00209834
0.00200674
0.00195176
0.00188081
0.00181807
0.00177608
0.0017332
0.00170232
0.00172006
0.00183637
0.0021205
0.00210969
0.00204866
0.00199391
0.00196344
0.00194778
0.00191087
0.00183746
0.00184277
0.00191802
0.00235659
0.00227513
0.0021155
0.00201087
0.00190713
0.0018054
0.00172582
0.0016865
0.00169481
0.00175357
0.0019936
0.0019465
0.00184986
0.00175799
0.00165638
0.00156034
0.00151514
0.00151928
0.00156719
0.0017324
0.00183233
0.00171858
0.00162456
0.00153707
0.00145846
0.00140988
0.0014087
0.00142997
0.00150988
0.0017373
0.001794
0.00165612
0.00154094
0.0014569
0.0013966
0.00136655
0.00137022
0.00139568
0.00148179
0.00173758
0.00182998
0.00168855
0.00156291
0.00147136
0.00140769
0.00137021
0.00137026
0.00138972
0.00146691
0.00170368
0.00193403
0.00179955
0.00166606
0.00156351
0.00148968
0.0014386
0.00142032
0.00142793
0.00147538
0.00164633
0.00204998
0.00191676
0.00178235
0.00167934
0.00160115
0.00154663
0.00150749
0.00149773
0.00151698
0.00161848
0.00218039
0.00203618
0.00190549
0.00181104
0.00174023
0.00168859
0.00164962
0.00160293
0.00160245
0.00165107
0.00231028
0.00214634
0.00203524
0.00196184
0.00191041
0.00187558
0.00184441
0.00177374
0.00173137
0.00173769
0.00241405
0.00225521
0.00217985
0.00213624
0.00211236
0.00211381
0.00209667
0.00203457
0.00192187
0.00187329
0.00280302
0.00259076
0.00242437
0.0022892
0.00211197
0.00193637
0.00187445
0.00188721
0.001995
0.00231831
0.00243915
0.0022567
0.00210707
0.00196901
0.00181384
0.00171517
0.00171062
0.0017527
0.00194732
0.00238312
0.00228096
0.0020982
0.00192677
0.00176975
0.00164975
0.0015963
0.00160433
0.00166407
0.00187173
0.00227906
0.00213358
0.00193409
0.00177401
0.00165712
0.00157743
0.00154508
0.00155704
0.00161241
0.00178173
0.00213188
0.00207308
0.00187995
0.00174125
0.00164119
0.00157198
0.00153996
0.00154875
0.00159348
0.00171859
0.00200505
0.00211859
0.00194317
0.00181561
0.00172158
0.00165849
0.00161512
0.00161212
0.00163148
0.00170793
0.00191996
0.00224741
0.00207828
0.00195534
0.00186597
0.0018052
0.00176536
0.00173645
0.00173668
0.00176749
0.00190758
0.00240874
0.00223429
0.00212202
0.00204739
0.00200141
0.00197743
0.00194837
0.00189917
0.00189289
0.0019593
0.00258685
0.00241028
0.00231796
0.00226347
0.00224288
0.00224619
0.00223066
0.00216857
0.00207903
0.00208924
0.0027746
0.00260263
0.00253318
0.00250391
0.0025278
0.00257982
0.00258543
0.00252828
0.00235483
0.00229199
0.00370389
0.00337862
0.00315914
0.00291765
0.00267438
0.00256771
0.00257246
0.00264439
0.00287941
0.00337711
0.00325835
0.00299011
0.00275382
0.00252804
0.00236653
0.00231612
0.0023446
0.00248158
0.00285673
0.00341847
0.00316691
0.00281402
0.00251778
0.00230575
0.00217667
0.00215455
0.00220568
0.00237542
0.00275938
0.00329571
0.00305444
0.00266078
0.00239235
0.00220875
0.00210386
0.00209205
0.00214682
0.00231201
0.00268198
0.00316781
0.0029363
0.00260119
0.00236233
0.00219387
0.00209853
0.00208721
0.00213618
0.00228577
0.00261459
0.00307411
0.00290898
0.0026324
0.00243144
0.00228707
0.00220643
0.00218946
0.00221746
0.00231073
0.00257531
0.00302479
0.00301606
0.00278603
0.00260017
0.00247525
0.00241006
0.00239137
0.00240167
0.00243734
0.00259801
0.00301566
0.00321676
0.00298996
0.0028274
0.00274089
0.00270628
0.00270148
0.00269909
0.00267995
0.0027278
0.00304006
0.0034729
0.00324652
0.00312239
0.00307299
0.00307209
0.00309667
0.00310597
0.0030579
0.00300185
0.00317005
0.00377246
0.00355112
0.00346534
0.00344471
0.00348004
0.00355842
0.00362622
0.00361371
0.00349298
0.00354802
0.00446544
0.00406735
0.00373964
0.00345668
0.00330399
0.00330011
0.00338703
0.00361966
0.00399348
0.00452667
0.00409818
0.00373476
0.0033913
0.00315281
0.00303704
0.00304552
0.00318006
0.0034762
0.0039189
0.00449561
0.0040041
0.00353272
0.0031806
0.00297481
0.00288454
0.00290261
0.00305334
0.00335941
0.00380364
0.00433671
0.00385852
0.00339573
0.00309539
0.00290956
0.00282914
0.002845
0.00298554
0.00326765
0.00368753
0.00416276
0.00378164
0.00335835
0.00308777
0.00290747
0.00282743
0.00283649
0.00296337
0.00321945
0.00360376
0.004063
0.00379271
0.00344773
0.00321837
0.00303334
0.00293879
0.00292539
0.00300727
0.00321047
0.00357475
0.00403269
0.00395486
0.00368198
0.00344923
0.00325234
0.00314297
0.00311792
0.00316515
0.00329731
0.00360769
0.00407162
0.00423646
0.0039798
0.0037411
0.0035541
0.00345475
0.00343192
0.00347311
0.00354951
0.00373852
0.00415205
0.0046035
0.00433086
0.00409356
0.00392844
0.00385801
0.00385591
0.00393145
0.00402134
0.00411494
0.0043821
0.00505548
0.00474015
0.00450715
0.00437199
0.00432233
0.00435444
0.00448444
0.00465224
0.00479626
0.00496555
0.00461795
0.00420301
0.00384277
0.0036073
0.00352168
0.00356159
0.00373691
0.00403793
0.00443306
0.00493463
0.00431862
0.00389984
0.00353383
0.00333577
0.0032715
0.00332254
0.00351924
0.00383145
0.00422808
0.00472352
0.00416563
0.00366884
0.00333778
0.00317097
0.00311869
0.00316606
0.00336071
0.00366942
0.00405765
0.00453112
0.00401119
0.0035549
0.00326627
0.00310606
0.00305142
0.00308683
0.00325878
0.00354334
0.0039159
0.00435138
0.00395865
0.00353101
0.00326549
0.00310019
0.00303824
0.00306228
0.00321721
0.00348073
0.00383887
0.00426983
0.00401406
0.0036473
0.00342316
0.00321619
0.0031172
0.00310843
0.00323036
0.00347323
0.00382589
0.00426079
0.00421067
0.00391017
0.00368288
0.00343613
0.00329208
0.00326461
0.00335399
0.00356025
0.00388562
0.0043307
0.00451308
0.00425246
0.00399657
0.00372877
0.00357763
0.00354718
0.00363495
0.00380924
0.00406021
0.00445305
0.00492517
0.00464554
0.00434717
0.00408714
0.00397106
0.00395941
0.00408319
0.0042768
0.00448352
0.00476054
0.00543755
0.00508747
0.00475478
0.00453198
0.0044442
0.00445549
0.00461973
0.00487386
0.00513042
0.00533904
0.00277427
0.00267175
0.00257303
0.00251405
0.00249224
0.00248673
0.00249761
0.00256648
0.00269734
0.0028658
0.00268216
0.00253834
0.00243699
0.00239648
0.00239101
0.00238903
0.0024046
0.00247963
0.00259854
0.00275659
0.00263142
0.00246018
0.00237504
0.00233702
0.00232455
0.00232496
0.00235713
0.00243112
0.00253765
0.00266753
0.00258396
0.00242392
0.0023493
0.00231296
0.00229896
0.0023005
0.00233682
0.0024
0.00248445
0.00257412
0.00256973
0.00241444
0.00234681
0.00231106
0.00229597
0.00229634
0.00232783
0.0023758
0.00244451
0.00253185
0.00258998
0.00245209
0.00240146
0.00234781
0.00231191
0.00230669
0.00232819
0.00237101
0.00244132
0.00253203
0.00267094
0.00254478
0.00251122
0.00243081
0.00235006
0.00233452
0.00234782
0.0023913
0.00246408
0.00257143
0.0028233
0.00267385
0.00265769
0.00253786
0.00241468
0.00238227
0.0023946
0.00244246
0.00251375
0.0026324
0.0030182
0.00286511
0.00281479
0.00264498
0.00250844
0.00247047
0.00248442
0.0025383
0.00260614
0.00271238
0.00323309
0.00310877
0.00292349
0.00274894
0.00262621
0.0025838
0.00258588
0.00263498
0.00271891
0.00279835
0.00164311
0.00164157
0.0016432
0.00163686
0.00158808
0.00154098
0.00152754
0.00154804
0.00157403
0.00160392
0.00162045
0.00158636
0.00156315
0.00156257
0.00153343
0.00149281
0.001491
0.00151346
0.00154298
0.00158309
0.00161087
0.00154871
0.00151895
0.00150112
0.00147389
0.00146062
0.00146651
0.00149204
0.00152203
0.00154865
0.00158776
0.00151896
0.00148677
0.00146228
0.00144391
0.00143921
0.00144594
0.00146646
0.00149089
0.00150935
0.00157313
0.00150652
0.00147585
0.00145392
0.00144145
0.00143703
0.00143706
0.00144636
0.00146474
0.00148703
0.00157009
0.00150537
0.0014783
0.00145969
0.00144905
0.00144392
0.00144174
0.00144741
0.00146627
0.00149016
0.00158793
0.00153036
0.0015125
0.00148478
0.00146783
0.00146506
0.00146546
0.00147244
0.00149098
0.00151477
0.00163467
0.00157532
0.00157202
0.00153133
0.0014932
0.00148425
0.00148979
0.00149734
0.00151253
0.00153678
0.00171188
0.00164649
0.00162969
0.00157765
0.00152958
0.00150526
0.0015088
0.00151734
0.00153065
0.00155557
0.00178932
0.0017387
0.00165258
0.00160093
0.00156028
0.00153205
0.00153468
0.00154712
0.00155955
0.00157583
0.00117635
0.00118235
0.00119616
0.00119726
0.00113478
0.00111356
0.00111651
0.00112462
0.00112856
0.00113873
0.00117638
0.00116788
0.0011654
0.00117027
0.00111106
0.00108963
0.00109203
0.00110108
0.00111041
0.0011312
0.0011862
0.00116565
0.00115178
0.00112955
0.00108067
0.00107027
0.00107535
0.00108872
0.00110386
0.00112408
0.00117825
0.00114374
0.00112345
0.00109161
0.00106334
0.00105742
0.00106259
0.00107864
0.00109691
0.0011163
0.00115047
0.00112018
0.00109888
0.00107463
0.00106098
0.00105708
0.00105775
0.00106747
0.00108281
0.00109924
0.0011401
0.00110971
0.00108916
0.00107349
0.00106529
0.00106189
0.00106152
0.00106886
0.00108143
0.00109515
0.00114139
0.00111379
0.0010998
0.00108764
0.00108166
0.0010789
0.00107847
0.00108446
0.0010966
0.00111149
0.00115742
0.0011381
0.00112845
0.00111151
0.00110197
0.00109781
0.00109629
0.0010987
0.0011064
0.00112157
0.00119029
0.0011849
0.00117124
0.0011458
0.00112305
0.00111356
0.00111043
0.00110977
0.00111284
0.00112619
0.00124805
0.00123395
0.00119176
0.00116859
0.00115319
0.00113081
0.0011291
0.0011319
0.00113364
0.00113825
0.00096867
0.000963036
0.000963653
0.000972466
0.000951943
0.000927839
0.000930954
0.000941943
0.000946096
0.000953134
0.000966829
0.000955042
0.000955093
0.00095963
0.000928677
0.000910014
0.000911291
0.000921328
0.000929091
0.000945836
0.000968392
0.000955245
0.000950069
0.000945837
0.000910761
0.000896114
0.000897319
0.000908808
0.000921751
0.000941428
0.000973525
0.00095768
0.000946652
0.000931699
0.000898907
0.000887261
0.000887429
0.000896854
0.000912406
0.000932842
0.000980963
0.000957635
0.000940623
0.000918314
0.000894425
0.000887186
0.000886549
0.000891709
0.00090333
0.000920367
0.000974463
0.000948847
0.000927262
0.000907419
0.000894145
0.000889131
0.000888429
0.000893688
0.000903703
0.000918391
0.000957165
0.000937311
0.000921616
0.000908627
0.000900212
0.000896831
0.000895966
0.000899728
0.000909001
0.000923202
0.000960348
0.000947894
0.000935901
0.000926644
0.000919963
0.000911367
0.00090775
0.000908817
0.000918769
0.000935279
0.000988107
0.000981643
0.00096472
0.000950974
0.000940119
0.000926476
0.000920981
0.000921915
0.000928681
0.000941576
0.0010369
0.00101482
0.000992543
0.000977763
0.0009667
0.000946237
0.000938684
0.000941677
0.000945655
0.000950195
0.000868881
0.000861221
0.000853014
0.000848698
0.000839696
0.00082945
0.000832617
0.000844109
0.00085059
0.000857984
0.000864869
0.000852779
0.000844258
0.000841516
0.000830285
0.000819866
0.000820577
0.000829091
0.000837564
0.000850298
0.00086428
0.000849191
0.000839336
0.000836215
0.000822607
0.000812058
0.000811531
0.000818102
0.000828
0.000842257
0.000863185
0.000848373
0.000839058
0.000833182
0.000817398
0.000807837
0.000806399
0.000809708
0.000817735
0.000828939
0.000864355
0.000850209
0.000841595
0.00083143
0.000815576
0.000808794
0.000807345
0.000808743
0.000814361
0.000823008
0.000871999
0.0008567
0.000842609
0.000828412
0.000816093
0.000810943
0.000809425
0.000810812
0.000815841
0.00082355
0.000871651
0.000854895
0.000840243
0.00082755
0.00081918
0.000815527
0.000813943
0.000814025
0.00081876
0.000827591
0.000868613
0.000856088
0.000843716
0.000835991
0.000832142
0.000826595
0.00082124
0.000820515
0.000826976
0.000838421
0.00088559
0.000873773
0.000862676
0.000855863
0.000849782
0.000838106
0.000830237
0.000830092
0.000837049
0.000846535
0.000917209
0.000901438
0.000888226
0.00087594
0.000868171
0.000855351
0.000841336
0.000842529
0.000850212
0.000855114
0.000821314
0.000814127
0.00080675
0.000799788
0.000793644
0.000789789
0.000792193
0.000798275
0.000804161
0.000810504
0.000819291
0.000810116
0.00080219
0.000795369
0.000789241
0.000784835
0.000785186
0.000789383
0.000795122
0.000803566
0.000818008
0.000807857
0.00079889
0.000792054
0.000785393
0.000780525
0.000779918
0.000783017
0.000788278
0.000796426
0.000817689
0.000806943
0.000797531
0.000790409
0.000782855
0.00077818
0.000777004
0.000778442
0.00078265
0.000788651
0.000818382
0.000807507
0.000798313
0.000790692
0.000782875
0.000778849
0.000777595
0.000777987
0.000780962
0.000785287
0.000823812
0.000812031
0.000801512
0.000791557
0.000784182
0.000780884
0.000779603
0.000779739
0.000782278
0.00078653
0.000826325
0.000814486
0.000802759
0.000793298
0.000788038
0.000785774
0.000783552
0.000783017
0.000785661
0.000790933
0.000825912
0.000816394
0.000805691
0.000799835
0.000797842
0.000794518
0.000789572
0.000788338
0.00079119
0.000796978
0.000843498
0.0008296
0.000818835
0.000814031
0.000810459
0.000804588
0.00079668
0.000794888
0.000797765
0.000803218
0.000854244
0.00084387
0.000834688
0.000826924
0.000820915
0.000814779
0.000804669
0.000802485
0.000806066
0.000809918
0.000817041
0.000810167
0.000804866
0.000798638
0.000791788
0.000787914
0.000790258
0.000795485
0.000799388
0.000804588
0.000816611
0.000807217
0.000800442
0.000794071
0.000787468
0.000783228
0.000783886
0.000787144
0.000791435
0.000798891
0.000816762
0.000806637
0.000798258
0.000790778
0.000783725
0.000779462
0.00077906
0.000781596
0.000786191
0.000794005
0.00081724
0.000806862
0.000796834
0.000788103
0.000780973
0.000777098
0.000776147
0.000777615
0.000781416
0.000787249
0.000818615
0.000806913
0.000795998
0.000787161
0.000780563
0.000777037
0.000775861
0.000776423
0.000779115
0.00078328
0.000820535
0.000808149
0.000796687
0.000788001
0.00078211
0.000779196
0.000777996
0.000778305
0.000780867
0.000784892
0.000822478
0.000810206
0.000800026
0.00079106
0.000786559
0.000783912
0.000782339
0.000782369
0.000785164
0.00078997
0.000828314
0.000815491
0.000805473
0.000798459
0.00079518
0.000791452
0.000788295
0.000787802
0.000790037
0.000795107
0.000841204
0.000829054
0.000818809
0.00081128
0.000805982
0.000801102
0.000795275
0.000794287
0.000795658
0.00079942
0.00084701
0.000837886
0.00082928
0.000821973
0.000815112
0.000809152
0.000802449
0.000802092
0.000803686
0.000805668
0.104912
0.104448
0.103794
0.103435
0.103651
0.103652
0.103436
0.103795
0.104452
0.104918
0.104448
0.103589
0.102654
0.102133
0.101698
0.101697
0.102135
0.102661
0.103589
0.104447
0.103795
0.102655
0.101519
0.10101
0.100782
0.100787
0.101009
0.101504
0.102645
0.103787
0.103435
0.102133
0.101009
0.10051
0.1003
0.100281
0.10049
0.100991
0.10212
0.103425
0.103652
0.101696
0.100787
0.100283
0.100064
0.100062
0.100276
0.100762
0.101682
0.103644
0.103656
0.101689
0.100763
0.100276
0.100062
0.100062
0.100276
0.100763
0.101677
0.103621
0.10343
0.102119
0.100991
0.100487
0.100276
0.100273
0.100479
0.100939
0.102007
0.103263
0.103789
0.102645
0.101502
0.100985
0.100754
0.100694
0.10089
0.101169
0.102387
0.103649
0.104452
0.103585
0.102642
0.102036
0.101593
0.10135
0.101815
0.102402
0.103363
0.104316
0.104922
0.104414
0.103746
0.103275
0.103382
0.103434
0.10329
0.103649
0.104316
0.104817
0.100473
0.0997325
0.0995657
0.0994049
0.0988779
0.0988784
0.0994061
0.0995668
0.0997348
0.100475
0.0997331
0.0987869
0.0983603
0.0981243
0.0979709
0.0979706
0.098125
0.0983624
0.0987865
0.0997377
0.0995666
0.0983603
0.0978478
0.0975738
0.0974481
0.0974499
0.0975734
0.0978452
0.0983598
0.0995695
0.0994056
0.0981243
0.0975737
0.0972759
0.0971419
0.0971369
0.0972713
0.09757
0.098123
0.0994072
0.098878
0.0979704
0.0974497
0.0971373
0.0969951
0.0969946
0.0971358
0.0974436
0.0979688
0.0988798
0.0988795
0.0979695
0.0974437
0.0971357
0.0969946
0.0969948
0.097136
0.0974449
0.0979703
0.09889
0.0994072
0.0981228
0.0975699
0.0972708
0.0971361
0.0971378
0.097273
0.0975848
0.0981617
0.0995702
0.0995692
0.0983604
0.0978454
0.0975722
0.0974463
0.0974682
0.0976043
0.0980707
0.0985702
0.0997219
0.099739
0.0987918
0.0983625
0.098151
0.0980016
0.098193
0.0983467
0.0985631
0.0989925
0.0998962
0.10048
0.0997536
0.0995907
0.099563
0.0991124
0.0990813
0.0995532
0.0997224
0.0998963
0.100615
0.0957457
0.0954659
0.0953415
0.0952579
0.0951537
0.0951538
0.0952582
0.0953418
0.0954666
0.0957461
0.0954659
0.0951163
0.0949119
0.0947889
0.0947246
0.0947246
0.0947891
0.094912
0.0951163
0.0954772
0.0953416
0.0949119
0.0946607
0.0945111
0.0944411
0.0944411
0.0945109
0.0946672
0.0949194
0.0953519
0.095258
0.0947888
0.0945111
0.0943435
0.0942649
0.0942699
0.0943489
0.0945173
0.0947964
0.0952677
0.0951537
0.0947245
0.0944411
0.0942697
0.0941865
0.0941867
0.0942702
0.0944468
0.0947318
0.095163
0.0951534
0.0947304
0.0944467
0.0942701
0.0941867
0.0941868
0.0942704
0.0944474
0.0947324
0.0951661
0.0952677
0.0947964
0.0945173
0.0943494
0.0942704
0.0942715
0.0943506
0.094519
0.0947947
0.0952404
0.0953518
0.0949203
0.0946678
0.094519
0.0944487
0.0944462
0.0945165
0.094647
0.0948945
0.0953171
0.0954775
0.0951276
0.0949223
0.0947941
0.0947299
0.0947097
0.0947738
0.0948918
0.0950973
0.0954437
0.0957586
0.0954736