/*--------------------------------*- C++ -*----------------------------------*\
  =========                 |
  \\      /  F ield         | OpenFOAM: The Open Source CFD Toolbox
   \\    /   O peration     | Website:  https://openfoam.org
    \\  /    A nd           | Version:  9
     \\/     M anipulation  |
\*---------------------------------------------------------------------------*/
FoamFile
{
    format      ascii;
    class       volScalarField;
    location    "1";
    object      f8.gas;
}
// * * * * * * * * * * * * * * * * * * * * * * * * * * * * * * * * * * * * * //

dimensions      [0 0 0 0 0 0 0];

internalField   nonuniform List<scalar> 
137980
(
0.0112816
0.0123349
0.0115539
0.0111467
0.0112765
0.0113492
0.011504
0.0117113
0.0117842
0.0120401
0.0125183
0.0124714
0.0119753
0.0114866
0.0109167
0.0108766
0.0110563
0.0113287
0.011778
0.0123871
0.0116483
0.0115314
0.0114819
0.011307
0.0113559
0.0114139
0.0113053
0.011397
0.0116809
0.0119692
0.0111599
0.0103844
0.0105082
0.0109152
0.0111284
0.0115753
0.0113761
0.0108749
0.0104309
0.0103781
0.0100719
0.00982135
0.010152
0.0104375
0.0107049
0.0113527
0.0114022
0.0109318
0.0099958
0.00983344
0.00975462
0.0099361
0.0102036
0.0103109
0.0107743
0.0110599
0.0111396
0.0107447
0.00986733
0.0102889
0.00991631
0.0104597
0.0106641
0.0106131
0.0106277
0.0107519
0.0109764
0.0107351
0.0102088
0.0111954
0.0106677
0.0112314
0.0109895
0.0104531
0.0100803
0.0101448
0.0111918
0.0112064
0.0105917
0.0113684
0.010712
0.0112344
0.0107925
0.00988657
0.00931662
0.0095484
0.00997269
0.011498
0.0113621
0.011055
0.0110253
0.0113377
0.0104877
0.00974713
0.00920982
0.00938261
0.00958877
0.0102606
0.0110899
0.0110755
0.0080686
0.00863766
0.0086263
0.00851166
0.008456
0.00846964
0.00851056
0.00867882
0.00876535
0.00852842
0.00884195
0.00878651
0.00886229
0.00881659
0.00882271
0.00895562
0.00924096
0.00935993
0.00926103
0.0089116
0.00875227
0.00874349
0.00894563
0.00904647
0.00901872
0.00915018
0.00937226
0.00945603
0.00939823
0.00922726
0.0084948
0.00862187
0.00880116
0.00894524
0.00891355
0.00912239
0.00921853
0.0092376
0.00917415
0.0089637
0.00832623
0.00846846
0.00873555
0.00879581
0.00875861
0.00892092
0.00897128
0.00894465
0.00883777
0.00874204
0.00826088
0.00846666
0.0086681
0.00871303
0.00868805
0.00870384
0.00874737
0.00872981
0.00865963
0.00867419
0.00844743
0.00871941
0.00877836
0.00862751
0.00863465
0.00866278
0.00862527
0.00859627
0.00853089
0.00863759
0.00875615
0.00879371
0.00865152
0.00859154
0.00865026
0.00862336
0.00867596
0.00867784
0.00855533
0.00855287
0.00865729
0.00864273
0.00852524
0.00848684
0.00854458
0.00860518
0.00848235
0.00863225
0.00864396
0.00859379
0.00827259
0.00820499
0.00820781
0.00827109
0.00839021
0.00853864
0.00843999
0.00859902
0.00854415
0.00852564
0.00735879
0.0073051
0.00737974
0.00737659
0.00733815
0.00730031
0.00729466
0.00730671
0.00732067
0.00737744
0.00735487
0.00748097
0.00748485
0.00746849
0.00742276
0.00737167
0.00736596
0.00737208
0.0073549
0.00738141
0.00755184
0.00755204
0.0075109
0.00747816
0.00742655
0.00738006
0.0073658
0.00734693
0.00734092
0.00743138
0.00758853
0.00757241
0.00750763
0.00745422
0.00736703
0.00733269
0.00729399
0.00728929
0.00734464
0.00745468
0.00761477
0.00751798
0.00741587
0.00737818
0.00736325
0.00732203
0.00728476
0.00728423
0.00732926
0.0074715
0.00744134
0.00743346
0.00745613
0.0074545
0.00739886
0.00733439
0.00731377
0.00732849
0.007387
0.00740291
0.00745849
0.00751036
0.00753742
0.00747412
0.00738828
0.00736343
0.00739069
0.00746981
0.00748069
0.00746502
0.00755749
0.00762437
0.00752692
0.00740345
0.00736833
0.00739545
0.00751617
0.00753437
0.00750537
0.00749502
0.00759389
0.00752863
0.00734613
0.00737621
0.00737983
0.00751833
0.00756216
0.00754586
0.00741921
0.0074228
0.00734305
0.00725448
0.00731566
0.00733516
0.00738769
0.00756537
0.00756439
0.00746381
0.00724048
0.00726038
0.00709193
0.00712566
0.00723944
0.00729187
0.00730896
0.00726577
0.00716943
0.00720821
0.00723184
0.00719328
0.00709874
0.00711552
0.00718621
0.00719208
0.00715407
0.00716166
0.00719645
0.0072629
0.0072519
0.00722598
0.0070854
0.00707338
0.00707681
0.00707419
0.00722471
0.00731697
0.00731514
0.00729444
0.00725771
0.00722788
0.00709427
0.00707984
0.0071026
0.00731045
0.00737345
0.00736462
0.00733229
0.00727628
0.00722465
0.00722005
0.00722455
0.00724723
0.00734846
0.00742681
0.00741267
0.00737442
0.00729067
0.00721195
0.00718892
0.00719126
0.0073666
0.00740486
0.00749359
0.00747156
0.00741908
0.00731055
0.00721373
0.00718617
0.0071822
0.00718375
0.00756715
0.00760126
0.00756912
0.0074674
0.00731126
0.00722738
0.00718743
0.00718529
0.0071846
0.0071679
0.00771091
0.00766909
0.00749716
0.00729653
0.00725698
0.00721116
0.00720715
0.00721302
0.00718881
0.0071131
0.00772842
0.00752073
0.0072582
0.00726637
0.00726315
0.00724611
0.007257
0.00724858
0.00715906
0.00710099
0.00746738
0.00708994
0.0072516
0.00731567
0.00732224
0.00730755
0.00734152
0.00722002
0.00722353
0.00719488
0.00701649
0.00694271
0.00686833
0.00687458
0.00690343
0.00695503
0.00702887
0.00705269
0.00705464
0.00706353
0.00710451
0.00703216
0.00697743
0.00698685
0.00700646
0.0070589
0.00707922
0.0070606
0.00702985
0.00702831
0.00714418
0.00699413
0.00697995
0.00698488
0.00708782
0.00710093
0.0070868
0.00702261
0.00696954
0.00697005
0.00720848
0.00698573
0.00699737
0.00708226
0.00711374
0.00709942
0.00705482
0.00696425
0.00694446
0.00695222
0.00734325
0.00708935
0.00706226
0.00709974
0.00711993
0.00709544
0.00701565
0.00695364
0.00694797
0.00697616
0.00740885
0.00721725
0.00721478
0.0072088
0.00716916
0.00709806
0.00699017
0.00695275
0.00698534
0.00700403
0.00752323
0.00742292
0.00736939
0.0072525
0.00713541
0.00701327
0.00696339
0.00698488
0.00704764
0.0070126
0.00755491
0.00749754
0.00731508
0.0070599
0.00702872
0.00697016
0.00696907
0.0070825
0.00707649
0.00698189
0.0075237
0.00726053
0.00691091
0.00697033
0.00702327
0.00699533
0.00711434
0.00712741
0.00709208
0.00696876
0.00742501
0.00666346
0.00681032
0.00706492
0.00714618
0.00713966
0.00717086
0.00715204
0.00709513
0.00696904
0.00607519
0.00609871
0.00614687
0.00629639
0.00659162
0.00679762
0.00689519
0.00692837
0.00693066
0.00693788
0.0061066
0.00616631
0.00635024
0.00663494
0.00679613
0.00688422
0.00691711
0.00691509
0.00689068
0.0068574
0.00618485
0.00626699
0.00651528
0.00673223
0.00684793
0.00690046
0.00690176
0.00688246
0.00683651
0.00677337
0.006263
0.00639182
0.00661432
0.00677492
0.00686679
0.00688502
0.00687961
0.00686215
0.00681706
0.00675429
0.00654043
0.00669643
0.00682278
0.00689512
0.00691639
0.00691173
0.00688949
0.0068682
0.00681487
0.00674782
0.00715372
0.00712949
0.00709485
0.00706444
0.00703195
0.00697368
0.00692374
0.00688176
0.00678841
0.0067144
0.00727439
0.00722637
0.00716993
0.0071188
0.00706311
0.00698881
0.00693492
0.0068327
0.00670632
0.00663029
0.00722666
0.00719225
0.00712649
0.00706843
0.00696652
0.00689875
0.00678155
0.00664551
0.00658896
0.00655006
0.00702234
0.00698581
0.00688975
0.00676719
0.00669932
0.00660373
0.00654289
0.00653924
0.00653115
0.0065246
0.00653827
0.00631898
0.00627876
0.00634122
0.00644872
0.00644334
0.00645166
0.0064871
0.00650459
0.00651824
0.00588864
0.00588613
0.00585924
0.0057609
0.00576657
0.0059198
0.00638737
0.00666711
0.00670949
0.00673868
0.00575157
0.00581347
0.00580083
0.00574342
0.00576495
0.005948
0.00635728
0.0065816
0.00661491
0.00665284
0.00550277
0.00561207
0.00563471
0.00566023
0.00575421
0.0060311
0.00634298
0.00649854
0.00650758
0.00649328
0.0055062
0.00552302
0.0055536
0.00561591
0.00577789
0.00601978
0.00620474
0.00631134
0.00633323
0.00633323
0.00553288
0.0055126
0.00553144
0.00558367
0.00570389
0.00588677
0.00606273
0.00617478
0.00622153
0.00624866
0.00581747
0.00573905
0.00575019
0.00579809
0.0059149
0.00605431
0.00614042
0.00618776
0.00621673
0.00624338
0.00635802
0.00625154
0.00620019
0.00621353
0.00625151
0.0062728
0.00627121
0.00626944
0.00625505
0.00625492
0.0065652
0.00649091
0.00644375
0.00642935
0.00639503
0.00636762
0.0063193
0.00629969
0.00625813
0.0062507
0.00657916
0.0065374
0.00650272
0.00644974
0.00637839
0.00631661
0.00624497
0.00621049
0.00614619
0.00613757
0.00651478
0.00646466
0.0062984
0.0061061
0.00599758
0.00597442
0.00599259
0.00596935
0.00592601
0.00589975
0.00529269
0.00509409
0.00492634
0.0049367
0.00504871
0.0054523
0.00591859
0.00601484
0.00604672
0.00617936
0.00524045
0.00516061
0.00500016
0.00496568
0.0050079
0.00526896
0.00578216
0.00594268
0.00588519
0.00600402
0.00510708
0.00513474
0.00507852
0.00498045
0.00499899
0.00520815
0.0056672
0.00580093
0.00579082
0.00572004
0.005022
0.00506106
0.00502997
0.0049511
0.00497378
0.00518907
0.00553257
0.0055955
0.00556011
0.00548289
0.00484756
0.00486359
0.00486034
0.00486
0.00492504
0.00518603
0.00536832
0.00536769
0.00535178
0.00541306
0.00497097
0.00483006
0.00481521
0.00483463
0.00490623
0.00507983
0.00515737
0.00519533
0.00528428
0.00547151
0.00534916
0.00500495
0.00488646
0.00488169
0.00491206
0.00496221
0.00505668
0.00514659
0.00533417
0.00552142
0.00575059
0.00547751
0.00522488
0.00507056
0.0050309
0.00504195
0.00508262
0.00517245
0.0053938
0.00554268
0.00591782
0.00577609
0.0056242
0.00549326
0.00538974
0.0053143
0.00531852
0.00535765
0.00547906
0.00555451
0.00598601
0.00591138
0.0058348
0.00574172
0.00566848
0.00558795
0.00552433
0.00552596
0.00555386
0.00556467
0.00475115
0.00462333
0.00448384
0.00443254
0.00450979
0.00462207
0.00471189
0.00481282
0.00504334
0.00522473
0.00481526
0.0046956
0.00447937
0.00440048
0.00445998
0.0045523
0.00460086
0.00461387
0.00469704
0.00487431
0.00478558
0.00469111
0.00447906
0.00438019
0.00443533
0.00450403
0.00453074
0.00452445
0.00458707
0.00471404
0.00471453
0.00460214
0.00441171
0.00437165
0.00439936
0.00442311
0.00442928
0.00444452
0.00454213
0.00465537
0.0045789
0.00446583
0.0043949
0.00437482
0.00437649
0.00437569
0.0043799
0.00442561
0.0045542
0.00468033
0.00462064
0.00451291
0.00444991
0.00440664
0.00438475
0.00437404
0.00438497
0.00447839
0.00465649
0.00481821
0.00486538
0.00469641
0.00460544
0.00454126
0.00449209
0.00445942
0.00446572
0.00458399
0.00477088
0.00494966
0.00526514
0.00503871
0.00483245
0.00470363
0.00463627
0.00457606
0.0045641
0.00470304
0.00488891
0.00502158
0.00546248
0.00529871
0.00512633
0.00494356
0.00480675
0.00470229
0.00464645
0.00483181
0.00498565
0.00508977
0.00560615
0.00547944
0.00534792
0.00518945
0.00500155
0.00482339
0.00474295
0.00492089
0.00501764
0.00506513
0.00488816
0.00459456
0.00445077
0.00426707
0.00420224
0.00420179
0.00419014
0.00420919
0.00427364
0.00441615
0.00483252
0.00458933
0.00436129
0.0042044
0.00415721
0.00415483
0.0041373
0.0041494
0.00421315
0.00434415
0.00471259
0.0045701
0.00434532
0.00420679
0.00414207
0.00412103
0.00408878
0.00410307
0.00416985
0.00430213
0.00454833
0.00447095
0.0043103
0.00420576
0.0041379
0.00409853
0.00406558
0.00408267
0.00415435
0.00428711
0.00454976
0.00442541
0.00431157
0.00422032
0.0041472
0.00409738
0.00406989
0.00409195
0.00416678
0.00430694
0.00486623
0.00459852
0.00442133
0.00430632
0.00422374
0.00416199
0.00412205
0.00413766
0.00420226
0.00436029
0.00519931
0.00500009
0.0047839
0.00459014
0.00443694
0.00432563
0.00422509
0.0042173
0.00426377
0.0044417
0.00536183
0.00521854
0.00506377
0.00488211
0.00469925
0.00454898
0.00438906
0.00431998
0.00435056
0.00453856
0.00551544
0.0053799
0.00525257
0.00512422
0.00494688
0.00479861
0.0046155
0.00445086
0.00444646
0.004606
0.00554354
0.00540763
0.0052707
0.00517033
0.00503112
0.00491669
0.00478763
0.00460754
0.00455339
0.00463892
0.00492632
0.00477255
0.00453565
0.00428569
0.00412271
0.00405404
0.00405568
0.00408406
0.00416086
0.00427563
0.00473727
0.00451363
0.00425791
0.00407768
0.00398292
0.00395038
0.00396082
0.00400001
0.00408314
0.00423294
0.00448953
0.00428846
0.00411087
0.00399346
0.00392865
0.00390867
0.00392336
0.00396809
0.00405298
0.00420633
0.00442426
0.00423693
0.00408797
0.00399255
0.00393557
0.00390844
0.00392096
0.00396438
0.00404698
0.00420002
0.00462762
0.00439441
0.00423459
0.00412798
0.00405172
0.0039973
0.00399656
0.00402299
0.00408918
0.00422183
0.00491882
0.00466672
0.00446945
0.00432005
0.0042132
0.00413283
0.00409413
0.00410817
0.00415533
0.00425663
0.00518026
0.00494058
0.00471359
0.00452996
0.00438221
0.0042873
0.0042129
0.00421492
0.00424759
0.00434276
0.00530711
0.0050908
0.00488067
0.00469588
0.00452028
0.00439921
0.00431431
0.0043091
0.00434079
0.00445664
0.0052814
0.0050789
0.00488527
0.00471954
0.00456205
0.00444878
0.0043778
0.00438538
0.00443486
0.00460317
0.00512019
0.00496304
0.00482291
0.00469865
0.00458775
0.00450899
0.00446453
0.00448014
0.00455329
0.00475637
0.00491359
0.00473188
0.00450218
0.0043004
0.00415904
0.00407612
0.00407425
0.00410185
0.0041772
0.00429201
0.00459802
0.00441318
0.00422054
0.00406445
0.00396582
0.00391213
0.00391832
0.00395436
0.00403895
0.00421271
0.00442676
0.00422194
0.00406501
0.0039536
0.00388204
0.00383876
0.00384562
0.00388242
0.00397563
0.00418016
0.00437353
0.004183
0.0040381
0.00393544
0.00386615
0.00382057
0.00382344
0.00385752
0.00395403
0.00417784
0.00446965
0.00426987
0.00412017
0.00400854
0.00392811
0.00386637
0.00384299
0.00386897
0.00396432
0.0041975
0.0046097
0.00440916
0.00425082
0.00411694
0.00401415
0.00393927
0.00390817
0.00392651
0.00400185
0.00420894
0.00473289
0.00451935
0.00436475
0.00423208
0.00411908
0.00404054
0.00400109
0.00401622
0.00407504
0.00425108
0.00478516
0.00458338
0.00445856
0.00434222
0.00423559
0.00416229
0.00412478
0.00414082
0.00419433
0.00434792
0.00480087
0.00466321
0.00456397
0.00445864
0.00437388
0.00432329
0.0042903
0.00429917
0.0043551
0.004534
0.00485263
0.00480109
0.00470068
0.00462329
0.00457755
0.00455876
0.00453139
0.00449722
0.00453841
0.00467205
0.00521165
0.0050878
0.00488353
0.00473884
0.00461386
0.00450909
0.00442847
0.00442372
0.00445699
0.00456923
0.00480743
0.00469842
0.00454845
0.00441059
0.00427751
0.00416015
0.00412733
0.00414991
0.00424514
0.00450918
0.00458674
0.00440492
0.00425228
0.00411375
0.00399471
0.00393126
0.00393761
0.00398853
0.00413311
0.00447223
0.00451446
0.00429955
0.00411795
0.00398009
0.00388379
0.00384162
0.00385398
0.00391107
0.00406534
0.00443568
0.00453032
0.00431212
0.0041216
0.00397821
0.00387871
0.00382805
0.00383644
0.0038856
0.00402871
0.00437527
0.00464558
0.00443681
0.00424022
0.00408508
0.00397438
0.00390202
0.00389737
0.00392626
0.00402956
0.00430326
0.00477995
0.00457716
0.00438374
0.00423108
0.00411706
0.00404182
0.00400996
0.00402504
0.00408835
0.00427976
0.00493648
0.00473025
0.00454623
0.00440659
0.00430302
0.00423693
0.00418941
0.00418924
0.00421849
0.00433144
0.0050982
0.00488452
0.00472546
0.00461294
0.00453504
0.0044883
0.00445823
0.00441454
0.00442125
0.00446648
0.00524554
0.00504655
0.00492945
0.00485394
0.00481064
0.00480658
0.00479701
0.0047477
0.00469356
0.0046729
0.00591756
0.00565262
0.00543538
0.00525639
0.00504883
0.0048592
0.00481286
0.00484595
0.00501406
0.00543122
0.00550557
0.00524599
0.00502884
0.00483617
0.00463959
0.00452723
0.00453404
0.0046157
0.00490256
0.00544619
0.005307
0.00503004
0.00477697
0.00455127
0.0043798
0.00431285
0.00433643
0.00444977
0.00476521
0.00528087
0.00511452
0.004813
0.0045628
0.00437523
0.00424965
0.00420774
0.00423663
0.00434435
0.00462458
0.00509259
0.00503002
0.00473172
0.00450486
0.0043381
0.00422562
0.00418318
0.00420688
0.00429907
0.0045197
0.00493383
0.00507579
0.00479827
0.00458494
0.00442535
0.00431897
0.00426057
0.00427045
0.00432817
0.00448485
0.00483255
0.00522266
0.00495586
0.00475264
0.00460278
0.00450355
0.00444416
0.00443389
0.00446201
0.00455753
0.00481334
0.00540715
0.00514409
0.00495989
0.00483346
0.00475572
0.00472296
0.00469502
0.00469815
0.00473312
0.00488066
0.00561287
0.00536193
0.00520841
0.0051128
0.00507184
0.00507411
0.005071
0.00503203
0.0050146
0.00506584
0.00584127
0.00560807
0.00549127
0.00543283
0.00544006
0.00549637
0.00552702
0.00549686
0.00538229
0.00535475
0.00725162
0.00688308
0.0066119
0.00633391
0.00607233
0.00596642
0.00598509
0.00609723
0.00639635
0.00695006
0.00678536
0.00643754
0.00613148
0.00585438
0.00565547
0.00560055
0.00565039
0.0058391
0.00629104
0.00692875
0.00664517
0.00620035
0.00582119
0.00553336
0.00535666
0.00533149
0.00541176
0.00565477
0.00613612
0.00675215
0.00649102
0.00600068
0.00563645
0.0053726
0.00522004
0.00520657
0.005294
0.00553757
0.00601226
0.00659106
0.00635947
0.00591949
0.00558282
0.00533397
0.00519139
0.00517765
0.00525844
0.00548577
0.00591681
0.00647064
0.00633251
0.00594982
0.00565046
0.00542622
0.00529822
0.00527799
0.00533515
0.00549959
0.00587086
0.00641034
0.00645318
0.00611585
0.00584056
0.0056459
0.00554001
0.00551985
0.00555642
0.00565566
0.00590642
0.00641792
0.00666749
0.0063427
0.00610279
0.0059593
0.00589581
0.00589267
0.0059188
0.00596028
0.00607966
0.00648121
0.00693767
0.00663082
0.00644047
0.00634884
0.00633115
0.00636157
0.00640304
0.00641006
0.00642944
0.00667119
0.007254
0.00697291
0.00683647
0.0067882
0.00681271
0.00689813
0.0069925
0.0070304
0.00699608
0.00711583
0.00827473
0.00784085
0.00747675
0.00716624
0.00699505
0.00699473
0.00710797
0.00738848
0.00780792
0.00837388
0.00788098
0.00746013
0.00706864
0.00678429
0.00664274
0.0066556
0.00681858
0.00716413
0.0076523
0.0082629
0.00772963
0.00720496
0.0067911
0.00653134
0.00641245
0.0064331
0.00661827
0.00698144
0.00747858
0.0080547
0.00755406
0.00703574
0.006667
0.00642395
0.00631305
0.00632892
0.00650005
0.00683626
0.00731275
0.00784295
0.00747493
0.0069885
0.00664687
0.00640743
0.00629517
0.0063019
0.00645703
0.00676124
0.00719982
0.00771495
0.00750817
0.0070929
0.00678491
0.00653729
0.00640675
0.00638846
0.00649759
0.0067489
0.0071651
0.00767659
0.00770646
0.00735351
0.00704572
0.00678768
0.00664076
0.00660757
0.00667974
0.00686101
0.00722257
0.00773254
0.00801667
0.00767965
0.00737328
0.00712863
0.00699173
0.00695888
0.0070217
0.00714913
0.00739962
0.00785951
0.00839841
0.00805346
0.0077588
0.00754092
0.00743573
0.00742168
0.00751169
0.0076459
0.0078029
0.00813619
0.0088449
0.00848459
0.00820238
0.00801995
0.00794278
0.00795819
0.00809496
0.00829084
0.00848364
0.00871618
0.00849568
0.00804183
0.00765062
0.00737992
0.0072703
0.00731449
0.00752119
0.00786786
0.00830442
0.00883938
0.00814894
0.00768595
0.0072732
0.00702748
0.00694091
0.00699728
0.00722909
0.00759138
0.00803426
0.00856605
0.00794254
0.0074044
0.00701092
0.00679211
0.00671721
0.00677143
0.00700312
0.00736298
0.00780091
0.00831798
0.00776335
0.00725734
0.00690182
0.00668755
0.00660887
0.00664573
0.00684722
0.00717753
0.00760105
0.00808769
0.00770601
0.00722431
0.00688929
0.00666821
0.00658013
0.00660252
0.00678167
0.00708481
0.00749209
0.00797454
0.00778697
0.00735744
0.0070559
0.00679004
0.00666039
0.00664836
0.00679293
0.00707484
0.00747474
0.00795805
0.00802516
0.00765449
0.00735243
0.00704436
0.00686423
0.0068293
0.00694134
0.00718871
0.00756184
0.00804874
0.00837139
0.00803404
0.00770839
0.0073817
0.00718893
0.00714654
0.00725267
0.00747057
0.00777779
0.00821796
0.00881275
0.00845592
0.00809857
0.00778236
0.00762232
0.00759359
0.00772488
0.00795238
0.00821333
0.00855294
0.00932754
0.00891826
0.00854156
0.00826281
0.00813599
0.0081246
0.00828688
0.00855892
0.00885361
0.00911896
0.00601392
0.00587361
0.00574775
0.00566642
0.00562915
0.00561762
0.00563954
0.00574418
0.00592591
0.00615618
0.00587526
0.00569732
0.0055629
0.00550057
0.00548276
0.00547624
0.00550273
0.00560833
0.00577582
0.00599564
0.00579031
0.005589
0.00547048
0.0054119
0.00538828
0.00538526
0.00542363
0.00552009
0.00566763
0.00585234
0.0057304
0.005534
0.00542707
0.0053719
0.00534785
0.00534532
0.0053824
0.00545856
0.0055724
0.00570817
0.00571553
0.0055184
0.00541816
0.00536379
0.0053391
0.00533491
0.00536262
0.00541717
0.00551004
0.00563849
0.00575536
0.00556326
0.00547313
0.00539689
0.005353
0.00534428
0.00536119
0.0054102
0.00550281
0.00563383
0.00587492
0.00568764
0.00560285
0.00548711
0.00539627
0.00537748
0.0053905
0.00544185
0.00553899
0.00568557
0.00608123
0.00587162
0.00579008
0.00562198
0.00547694
0.00543724
0.00545214
0.00551047
0.00561229
0.00577898
0.00633891
0.00612182
0.00599525
0.0057772
0.0056029
0.00554862
0.00556215
0.00563028
0.0057366
0.00589884
0.00662375
0.00642875
0.00618084
0.0059418
0.00577068
0.00571005
0.00571741
0.00579488
0.00591751
0.00603177
0.00427862
0.00426563
0.00425985
0.00424457
0.00417573
0.0041146
0.00409836
0.00412931
0.00417808
0.00423851
0.00424005
0.00418544
0.00414522
0.00413592
0.00408996
0.0040345
0.00403286
0.00406681
0.00411961
0.00419401
0.00422369
0.00413194
0.00407673
0.00404114
0.00399803
0.00397912
0.00398839
0.00402618
0.0040778
0.00413504
0.0041925
0.00408522
0.00402722
0.00398334
0.0039533
0.00394575
0.0039565
0.00398843
0.00403142
0.00407026
0.00417505
0.00406511
0.004009
0.00397004
0.00394878
0.00394168
0.00394342
0.00396175
0.00399661
0.00403653
0.00417427
0.00406351
0.00401089
0.00397636
0.0039587
0.00395093
0.00394915
0.00396252
0.00399734
0.00403798
0.00420658
0.00410086
0.00405736
0.00401084
0.00398696
0.00398258
0.00398379
0.00399658
0.00402909
0.00407003
0.0042832
0.00417684
0.00414514
0.00407926
0.00402773
0.00401616
0.00402268
0.00403312
0.00405817
0.00410479
0.00440092
0.00429537
0.00424988
0.00416466
0.00408936
0.00405636
0.00405781
0.00406645
0.00409
0.0041392
0.004527
0.00443958
0.00431074
0.00422226
0.00415055
0.00410613
0.00410644
0.00412555
0.00414907
0.00417985
0.00346164
0.00346235
0.00347642
0.00347594
0.00339109
0.00335676
0.00335755
0.00336852
0.00337749
0.00340069
0.00345616
0.00343567
0.00342588
0.00342856
0.00334442
0.00330997
0.00331063
0.00332284
0.00334173
0.00338155
0.00347044
0.00343024
0.00340004
0.0033622
0.00328987
0.00327205
0.00327741
0.00329768
0.00332696
0.00337033
0.00346173
0.00339998
0.00335622
0.00330395
0.00325916
0.00324856
0.0032556
0.00328068
0.00331552
0.00335493
0.00342755
0.00336639
0.0033215
0.00327903
0.00325454
0.00324724
0.0032493
0.00326716
0.00329717
0.00332943
0.0034137
0.0033515
0.00330908
0.00327834
0.00326182
0.00325541
0.00325538
0.00327015
0.00329608
0.00332449
0.00341561
0.003357
0.0033263
0.0033023
0.00328898
0.00328278
0.00328174
0.0032924
0.00331578
0.00334546
0.00343843
0.00339378
0.00337051
0.00334329
0.00332595
0.00331648
0.00331234
0.00331481
0.00333063
0.00336197
0.00349418
0.00346857
0.00343935
0.00339975
0.0033673
0.00335047
0.00334168
0.00333905
0.00334427
0.00337171
0.00358756
0.00355604
0.00349013
0.00345049
0.00341988
0.00338689
0.00338015
0.00338209
0.00338473
0.00339583
0.00306977
0.00305623
0.00305547
0.00306505
0.00303413
0.00299611
0.00299614
0.00301234
0.00302012
0.00303707
0.00306295
0.00303757
0.00303198
0.00303522
0.00298875
0.00295742
0.00295627
0.00296913
0.00298489
0.00301904
0.00306626
0.0030365
0.00301995
0.00300675
0.00295325
0.00292838
0.00292818
0.00294416
0.00296924
0.00301087
0.00307723
0.00304002
0.00301159
0.00298077
0.00293009
0.00291077
0.00291057
0.0029258
0.00295481
0.00299652
0.00308983
0.00303966
0.0030012
0.00295986
0.00292186
0.00290956
0.00290875
0.00291943
0.00294355
0.0029799
0.00308192
0.00302709
0.00298292
0.00294726
0.00292305
0.00291359
0.0029125
0.0029233
0.00294506
0.00297772
0.00305711
0.00301195
0.00297868
0.00295276
0.00293592
0.00292846
0.00292645
0.00293378
0.00295306
0.00298391
0.00306037
0.00302964
0.00300442
0.00298634
0.00297266
0.00295641
0.00294884
0.00294983
0.00296722
0.00300065
0.0031067
0.0030829
0.00305253
0.00302953
0.00301306
0.00298935
0.00297653
0.00297531
0.00298587
0.00301276
0.0031865
0.00314788
0.00311003
0.00308261
0.00306226
0.00303104
0.00301497
0.00301492
0.00302068
0.0030323
0.00286616
0.00284927
0.0028333
0.00282397
0.00280859
0.00279094
0.00279346
0.00281074
0.00282411
0.00284184
0.00285658
0.00283133
0.00281458
0.00280744
0.00278823
0.00276977
0.00276895
0.00278049
0.00279668
0.00282337
0.00285532
0.00282517
0.00280499
0.0027955
0.00277193
0.00275343
0.00275129
0.00276048
0.0027782
0.00280689
0.00285622
0.0028252
0.00280339
0.00278805
0.00276103
0.00274443
0.00274144
0.00274723
0.00276251
0.00278562
0.00286046
0.00282895
0.00280669
0.00278462
0.00275768
0.00274544
0.0027425
0.00274583
0.00275797
0.00277704
0.00287561
0.00284046
0.00280982
0.00278196
0.00275961
0.00274959
0.0027465
0.00274971
0.00276086
0.0027782
0.00287625
0.00283977
0.00280923
0.00278437
0.00276743
0.00275927
0.0027557
0.00275636
0.00276623
0.00278458
0.00287396
0.00284444
0.0028189
0.00280219
0.00279241
0.00278069
0.00277062
0.00276905
0.00277966
0.00280156
0.00290434
0.0028765
0.00285392
0.00283858
0.00282523
0.00280547
0.00278997
0.00278817
0.00279819
0.00281763
0.00295658
0.00292533
0.00289987
0.00287649
0.00286059
0.00283867
0.00281444
0.00281367
0.00282513
0.00283729
0.00276786
0.00275274
0.00273766
0.0027243
0.00271342
0.00270623
0.00270881
0.00271863
0.00273035
0.00274433
0.00276298
0.0027443
0.00272851
0.00271546
0.00270399
0.0026954
0.00269491
0.00270139
0.00271239
0.00272913
0.00276166
0.00274101
0.00272305
0.00270899
0.00269603
0.00268637
0.00268452
0.00268924
0.00269923
0.00271505
0.00276267
0.00274103
0.00272123
0.00270571
0.00269103
0.00268157
0.00267886
0.00268136
0.00268971
0.00270207
0.00276612
0.00274303
0.0027229
0.00270629
0.00269117
0.00268261
0.00267969
0.0026806
0.00268708
0.00269677
0.00277771
0.00275201
0.00272923
0.00270915
0.00269435
0.00268683
0.0026837
0.00268399
0.00268951
0.00269868
0.00278423
0.00275836
0.00273396
0.0027148
0.00270268
0.00269656
0.00269177
0.00269077
0.00269581
0.00270595
0.00278765
0.00276497
0.00274309
0.00272821
0.00272119
0.00271317
0.00270425
0.00270176
0.00270628
0.00271703
0.00281693
0.00278988
0.00276836
0.00275509
0.0027449
0.00273315
0.00271944
0.0027155
0.00271943
0.00272975
0.00283697
0.00281571
0.00279671
0.0027801
0.00276649
0.0027538
0.00273626
0.00273126
0.00273612
0.00274425
0.00276196
0.00274709
0.0027351
0.00272285
0.00271079
0.00270372
0.00270652
0.00271494
0.00272387
0.00273595
0.0027596
0.00274084
0.00272647
0.00271368
0.00270138
0.00269328
0.00269328
0.00269853
0.00270749
0.00272278
0.00276042
0.00274021
0.00272252
0.00270717
0.00269362
0.00268495
0.00268344
0.00268745
0.00269651
0.00271184
0.00276327
0.00274143
0.00272042
0.0027024
0.00268833
0.00268005
0.00267768
0.00268029
0.0026881
0.00270032
0.00276817
0.00274294
0.00272001
0.00270149
0.00268785
0.00267992
0.00267711
0.00267835
0.00268441
0.00269394
0.00277408
0.0027476
0.00272244
0.00270414
0.0026915
0.00268438
0.00268132
0.00268189
0.00268744
0.00269644
0.00277917
0.00275306
0.00273232
0.00271174
0.00270094
0.00269391
0.00268997
0.00268979
0.00269512
0.00270481
0.00279043
0.00276438
0.00274412
0.00272808
0.00271867
0.00270918
0.00270249
0.00270103
0.00270482
0.0027146
0.00281222
0.00278711
0.00276741
0.00275102
0.00273893
0.00272899
0.00271773
0.00271478
0.00271684
0.00272473
0.00282688
0.00280702
0.00278682
0.00277111
0.00275674
0.00274548
0.0027333
0.00273085
0.0027332
0.00273843
0.0330653
0.0317439
0.0315543
0.0311913
0.0298553
0.0298564
0.0311935
0.0315567
0.0317489
0.0330714
0.0317453
0.0298229
0.029074
0.0286944
0.0283517
0.0283513
0.0286957
0.0290783
0.029822
0.0317417
0.0315567
0.0290744
0.0282204
0.0278689
0.027713
0.0277159
0.0278686
0.0282122
0.0290675
0.0315519
0.0311931
0.0286947
0.0278686
0.0275289
0.0273883
0.0273788
0.0275192
0.0278591
0.0286864
0.0311884
0.0298559
0.028351
0.0277156
0.0273797
0.0272356
0.0272345
0.0273764
0.027703
0.0283427
0.0298494
0.0298587
0.0283469
0.0277036
0.0273763
0.0272344
0.0272344
0.0273764
0.027703
0.0283405
0.0298334
0.031188
0.0286857
0.027859
0.0275175
0.0273764
0.0273752
0.0275148
0.0278422
0.0286467
0.0310851
0.0315525
0.0290663
0.028211
0.0278569
0.0277002
0.0276794
0.0278247
0.0280913
0.0289576
0.0314667
0.0317423
0.0298142
0.0290645
0.0286578
0.0283094
0.0282233
0.0285681
0.0289649
0.0297139
0.0316549
0.0330673
0.031719
0.0315238
0.0310918
0.0297187
0.0297477
0.0311046
0.0314656
0.0316549
0.0329862
0.0275883
0.027065
0.0269338
0.0268228
0.0265032
0.0265034
0.0268234
0.0269344
0.0270665
0.0275903
0.0270653
0.0264502
0.0261602
0.0260024
0.0259019
0.0259018
0.0260028
0.0261614
0.0264498
0.0270666
0.0269343
0.0261603
0.0258229
0.0256461
0.0255658
0.0255666
0.0256459
0.0258218
0.0261598
0.0269352
0.0268232
0.0260024
0.0256461
0.0254566
0.0253719
0.0253701
0.0254548
0.0256447
0.0260018
0.026824
0.0265033
0.0259017
0.0255665
0.0253702
0.0252815
0.0252813
0.0253697
0.0255641
0.025901
0.0265035
0.0265041
0.0259014
0.0255641
0.0253696
0.0252813
0.0252813
0.0253698
0.0255644
0.0259011
0.0265043
0.0268238
0.0260016
0.0256447
0.0254547
0.0253698
0.0253701
0.0254549
0.0256462
0.0260066
0.0268663
0.0269353
0.02616
0.0258218
0.0256451
0.0255646
0.0255669
0.0256485
0.0258589
0.0261952
0.0269725
0.027067
0.026451
0.0261605
0.0260055
0.0259046
0.0259373
0.0260394
0.0261939
0.0264844
0.0271046
0.0275913
0.0270718
0.0269398
0.026864
0.0265418
0.026537
0.0268614
0.0269727
0.0271046
0.0276308
0.0244199
0.0242348
0.0241536
0.024098
0.0240331
0.0240332
0.0240982
0.0241538
0.0242352
0.0244203
0.0242348
0.0240129
0.0238855
0.0238096
0.0237704
0.0237704
0.0238098
0.0238856
0.0240128
0.0242391
0.0241537
0.0238855
0.0237323
0.0236419
0.0235997
0.0235997
0.0236418
0.0237349
0.0238885
0.0241576
0.0240981
0.0238096
0.0236419
0.0235414
0.0234946
0.0234967
0.0235437
0.0236445
0.0238127
0.0241019
0.0240331
0.0237703
0.0235997
0.0234966
0.0234473
0.0234474
0.0234969
0.0236022
0.0237733
0.0240368
0.024033
0.0237728
0.0236021
0.0234968
0.0234474
0.0234475
0.023497
0.0236024
0.0237735
0.0240378
0.0241018
0.0238127
0.0236445
0.0235439
0.023497
0.0234972
0.0235443
0.023646
0.0238161
0.0241244
0.0241576
0.0238889
0.0237352
0.0236449
0.0236026
0.0236043
0.0236475
0.0237582
0.0239101
0.0241769
0.0242392
0.024017
0.0238893
0.0238151
0.023776
0.023796
0.0238352
0.023909
0.024037
0.0242588
0.0244247
0.0242415
0.0241604
0.0241228
0.0240602
0.0240568
0.0241211
0.0241771
0.0242588
0.0244442
0.0222293
0.0221617
0.0221226
0.0220971
0.0220799
0.0220799
0.0220971
0.0221227
0.0221618
0.0222293
0.0221617
0.0220743
0.0220173
0.0219815
0.021964
0.021964
0.0219815
0.0220173
0.0220743
0.0221657
0.0221226
0.0220173
0.0219475
0.0219035
0.0218825
0.0218824
0.0219035
0.0219505
0.0220205
0.0221264
0.0220971
0.0219815
0.0219035