/*--------------------------------*- C++ -*----------------------------------*\
  =========                 |
  \\      /  F ield         | OpenFOAM: The Open Source CFD Toolbox
   \\    /   O peration     | Website:  https://openfoam.org
    \\  /    A nd           | Version:  9
     \\/     M anipulation  |
\*---------------------------------------------------------------------------*/
FoamFile
{
    format      ascii;
    class       volScalarField;
    location    "1";
    object      interfaceCompositionPhaseChange:dmdtf.gasAndLiquid;
}
// * * * * * * * * * * * * * * * * * * * * * * * * * * * * * * * * * * * * * //

dimensions      [1 -3 -1 0 0 0 0];

internalField   nonuniform List<scalar> 
137980
(
3.03343e-161
-8.95514e-162
-2.76346e-162
-1.59573e-162
-7.81537e-163
-2.46097e-162
-2.59407e-162
-2.10676e-162
-1.43929e-160
-3.21396e-161
-3.81349e-162
-3.82175e-163
3.26407e-163
4.24622e-163
6.57634e-163
5.44522e-163
4.41721e-163
9.07984e-163
1.81711e-162
1.94938e-162
-9.03334e-162
-2.00329e-163
4.77085e-163
3.20983e-163
2.65717e-163
2.95168e-163
3.41394e-163
-6.27918e-164
-4.07665e-162
-2.49194e-161
-3.4799e-160
-1.19097e-162
2.15777e-163
1.43961e-163
9.34869e-164
1.13186e-163
1.75243e-163
1.44398e-163
-9.97669e-163
-7.18171e-162
-2.77399e-160
3.33972e-162
2.82738e-163
9.8948e-164
4.66746e-164
5.26631e-164
1.16436e-163
3.04785e-163
5.31937e-163
-1.80834e-161
-5.48026e-161
6.21402e-162
2.7589e-163
8.98177e-164
4.00693e-164
4.25544e-164
1.03397e-163
3.04562e-163
2.50119e-163
-5.42156e-161
5.33513e-161
8.30254e-163
3.18916e-163
1.24368e-163
7.00872e-164
6.82863e-164
1.38774e-163
2.69424e-163
-9.76047e-163
-1.06187e-161
1.12038e-161
1.02878e-162
4.5669e-163
2.54806e-163
1.58284e-163
1.41177e-163
2.55472e-163
5.22588e-163
3.84032e-163
-1.08306e-162
-9.14822e-161
1.01082e-162
6.41228e-163
5.55819e-162
7.06758e-162
5.6159e-162
4.27966e-162
9.3027e-163
1.65975e-162
1.19952e-160
-3.62054e-160
-3.93974e-163
-1.1887e-162
-6.44997e-161
-6.63003e-161
-5.55888e-161
1.76426e-161
9.66039e-162
4.48476e-161
-3.61689e-160
4.80113e-160
3.33451e-160
2.4547e-160
1.91626e-160
1.88863e-160
2.11564e-160
2.81083e-160
3.80054e-160
5.20152e-160
7.74739e-160
2.892e-160
1.62904e-160
1.1799e-160
9.34318e-161
8.65967e-161
9.2588e-161
1.06163e-160
1.36323e-160
1.99714e-160
3.4681e-160
1.59962e-160
6.77349e-161
5.84742e-161
4.30928e-161
3.83645e-161
4.13282e-161
4.85423e-161
5.10529e-161
6.34058e-161
8.53734e-161
1.19945e-160
2.52417e-161
2.72126e-161
2.5061e-161
1.94679e-161
2.10187e-161
2.84777e-161
3.50343e-161
5.01255e-161
1.33722e-160
1.19278e-160
1.53605e-161
2.00261e-161
1.90058e-161
1.36527e-161
1.43359e-161
2.3207e-161
4.54773e-161
9.19961e-161
1.94744e-160
2.59108e-160
9.02151e-161
4.21866e-161
2.26306e-161
1.33874e-161
1.49048e-161
2.30997e-161
4.67926e-161
9.75952e-161
1.66736e-160
2.95293e-160
1.2433e-160
6.23361e-161
2.8996e-161
1.25636e-161
1.78725e-161
3.4005e-161
6.15487e-161
1.34678e-160
2.50039e-160
4.09227e-160
1.91228e-160
9.96801e-161
3.68852e-161
-1.58173e-162
3.89709e-162
4.38944e-161
9.19952e-161
2.10538e-160
5.00953e-160
6.24663e-160
3.35312e-160
1.86993e-160
7.55545e-161
-2.60065e-161
-2.9442e-161
2.90555e-161
1.29733e-160
3.00605e-160
7.45072e-160
1.12766e-159
7.54718e-160
5.27641e-160
2.84031e-160
2.79638e-161
-2.17915e-161
8.98897e-161
2.16583e-160
4.56315e-160
9.60786e-160
7.29065e-161
1.0271e-160
7.9135e-161
7.01906e-161
6.93077e-161
8.11203e-161
1.08674e-160
1.60083e-160
2.42495e-160
2.9695e-160
1.01206e-160
5.13563e-161
3.67706e-161
3.21754e-161
3.22033e-161
4.0763e-161
5.89667e-161
9.36647e-161
1.54398e-160
2.51086e-160
5.57579e-161
2.70296e-161
2.0331e-161
1.68314e-161
1.64866e-161
2.14902e-161
3.22865e-161
5.59504e-161
9.64951e-161
1.60084e-160
3.32359e-161
1.93844e-161
1.66343e-161
1.26919e-161
1.04223e-161
1.23248e-161
1.93072e-161
3.6054e-161
6.28012e-161
1.04278e-160
6.00201e-161
3.41785e-161
1.9554e-161
1.07021e-161
7.82387e-162
9.05433e-162
1.4736e-161
2.73013e-161
4.69581e-161
7.93554e-161
1.02377e-160
4.64602e-161
2.224e-161
1.1803e-161
8.62057e-162
1.00739e-161
1.57509e-161
2.55744e-161
3.93945e-161
9.73187e-161
1.4329e-160
6.58616e-161
3.15485e-161
1.85539e-161
1.39369e-161
1.5524e-161
1.68519e-161
1.1598e-161
1.99065e-161
9.10031e-161
1.96692e-160
1.02961e-160
5.85398e-161
3.6959e-161
2.73968e-161
2.15075e-161
-3.11583e-162
-2.20607e-161
1.30331e-161
8.3314e-161
2.85305e-160
1.83248e-160
1.22903e-160
8.20088e-161
6.07492e-161
1.41416e-161
-3.63541e-161
-2.11563e-161
3.80824e-161
1.23801e-160
4.47974e-160
3.42107e-160
2.61343e-160
1.9438e-160
1.20735e-160
2.62479e-162
-3.07081e-161
1.48904e-161
1.3526e-160
1.88805e-160
2.00436e-161
1.44224e-161
9.74729e-162
7.6731e-162
7.72115e-162
9.03477e-162
1.42776e-161
2.12067e-161
3.11586e-161
4.68213e-161
1.58244e-161
1.0659e-161
7.17353e-162
5.56796e-162
5.33479e-162
6.42073e-162
8.95096e-162
1.3546e-161
2.11173e-161
3.35075e-161
1.38677e-161
8.73843e-162
5.58556e-162
3.92659e-162
3.25556e-162
3.85158e-162
5.67279e-162
9.01946e-162
1.46731e-161
2.37346e-161
1.19733e-161
7.39797e-162
4.37332e-162
2.57679e-162
2.14958e-162
2.64836e-162
4.01771e-162
6.64515e-162
1.12097e-161
1.86813e-161
1.18544e-161
6.74825e-162
3.70131e-162
2.37554e-162
2.0243e-162
2.34978e-162
3.37521e-162
5.48608e-162
9.30952e-162
1.57752e-161
1.41874e-161
8.15007e-162
4.77963e-162
3.33917e-162
2.66889e-162
2.59866e-162
3.30674e-162
5.07085e-162
8.32941e-162
1.45827e-161
1.88707e-161
1.14926e-161
7.85665e-162
5.76175e-162
4.16964e-162
3.4053e-162
3.67871e-162
4.73341e-162
7.41713e-162
1.57127e-161
2.59336e-161
1.80599e-161
1.3704e-161
9.77369e-162
5.95436e-162
4.41801e-162
3.5287e-162
1.54473e-162
8.50158e-162
2.0235e-161
3.85881e-161
3.12721e-161
2.30477e-161
1.58904e-161
7.52212e-162
5.10999e-162
-2.76634e-162
-1.14723e-162
1.42884e-161
2.33278e-161
6.06682e-161
4.91775e-161
3.55302e-161
2.50989e-161
1.0227e-161
3.49531e-162
-1.52179e-161
3.13438e-162
1.31927e-161
2.22383e-161
1.91287e-162
1.52236e-162
1.23409e-162
1.05565e-162
9.6831e-163
1.00896e-162
1.31084e-162
1.86313e-162
2.51234e-162
3.32648e-162
1.57808e-162
1.15363e-162
8.63701e-163
7.15122e-163
6.36998e-163
6.72051e-163
9.55334e-163
1.39902e-162
1.97711e-162
2.75195e-162
1.34824e-162
9.27251e-163
6.32478e-163
4.76961e-163
3.83877e-163
5.28369e-163
7.98021e-163
1.15506e-162
1.64195e-162
2.32749e-162
1.21286e-162
7.77904e-163
5.18602e-163
3.25832e-163
3.71684e-163
5.40826e-163
7.30582e-163
1.0151e-162
1.43539e-162
2.01684e-162
1.23836e-162
7.73974e-163
5.19304e-163
4.64386e-163
5.26354e-163
5.90899e-163
7.18113e-163
9.34047e-163
1.20552e-162
1.68677e-162
1.6446e-162
1.19626e-162
9.12639e-163
7.87963e-163
7.10635e-163
6.91531e-163
7.50653e-163
8.43925e-163
9.40505e-163
1.52357e-162
2.36961e-162
1.77013e-162
1.39993e-162
1.14607e-162
9.40732e-163
8.19801e-163
7.83454e-163
5.61588e-163
9.14206e-163
1.67629e-162
3.20272e-162
2.49835e-162
2.00721e-162
1.59146e-162
1.18218e-162
9.47168e-163
7.01752e-163
4.09848e-163
1.10065e-162
1.96261e-162
4.22368e-162
3.44837e-162
2.79758e-162
2.12889e-162
1.27966e-162
9.32898e-163
2.55975e-163
5.9423e-163
1.51824e-162
2.324e-162
5.58174e-162
4.69738e-162
3.89413e-162
2.96595e-162
1.65086e-162
5.68237e-163
3.10847e-163
1.05369e-162
2.07571e-162
2.79419e-162
1.42308e-163
1.09101e-163
8.8109e-164
7.57998e-164
7.02486e-164
6.91341e-164
8.09084e-164
1.1393e-163
1.55146e-163
1.95594e-163
1.29485e-163
9.36232e-164
7.25804e-164
5.97649e-164
4.76912e-164
4.30914e-164
6.12175e-164
9.64915e-164
1.50049e-163
1.99411e-163
1.18868e-163
8.31947e-164
6.20943e-164
4.82709e-164
3.32978e-164
3.47503e-164
5.55715e-164
9.13812e-164
1.42172e-163
1.95561e-163
1.14856e-163
8.16856e-164
6.16705e-164
4.6707e-164
3.58956e-164
4.50197e-164
6.36622e-164
9.74234e-164
1.35771e-163
1.8262e-163
1.25308e-163
9.32875e-164
7.31665e-164
6.06048e-164
5.88287e-164
6.4433e-164
7.77542e-164
9.96097e-164
1.28418e-163
1.64874e-163
1.52056e-163
1.18067e-163
9.67852e-164
8.53145e-164
7.95283e-164
7.87795e-164
8.49879e-164
9.87094e-164
1.215e-163
1.4508e-163
2.00491e-163
1.60336e-163
1.32995e-163
1.14091e-163
9.97185e-164
9.06987e-164
8.96296e-164
9.96931e-164
1.13526e-163
1.37052e-163
2.51325e-163
2.06335e-163
1.73792e-163
1.4624e-163
1.21035e-163
1.02581e-163
9.59772e-164
1.01296e-163
1.17405e-163
1.45767e-163
2.9758e-163
2.49373e-163
2.11437e-163
1.74327e-163
1.37414e-163
1.12317e-163
1.04519e-163
1.1275e-163
1.40536e-163
1.72048e-163
3.53779e-163
3.0431e-163
2.64328e-163
2.14488e-163
1.51565e-163
1.24115e-163
1.32485e-163
1.57337e-163
1.83528e-163
1.97081e-163
7.35027e-165
5.95943e-165
5.06288e-165
4.63772e-165
4.90836e-165
5.54506e-165
4.49358e-165
2.3133e-165
3.28656e-165
4.88332e-165
7.19148e-165
5.63178e-165
4.75601e-165
4.45825e-165
4.6909e-165
4.84673e-165
3.65442e-165
3.39e-165
6.47472e-165
8.27424e-165
7.08549e-165
5.48567e-165
4.66653e-165
4.4365e-165
4.48708e-165
4.36984e-165
2.95092e-165
4.38675e-165
7.21583e-165
1.11897e-164
7.44125e-165
5.82369e-165
4.98424e-165
4.72012e-165
4.69598e-165
4.39221e-165
4.78385e-165
6.50467e-165
8.98189e-165
1.23065e-164
8.62921e-165
6.94528e-165
5.97032e-165
5.61515e-165
5.67943e-165
5.97431e-165
6.76256e-165
8.07372e-165
9.90344e-165
1.20514e-164
1.07251e-164
8.89996e-165
7.67102e-165
7.00382e-165
6.75546e-165
6.86599e-165
7.37007e-165
8.31377e-165
9.64546e-165
1.11144e-164
1.32975e-164
1.1322e-164
9.80189e-165
8.70195e-165
7.93044e-165
7.52042e-165
7.5515e-165
8.20867e-165
9.25197e-165
1.03097e-164
1.56061e-164
1.35507e-164
1.18011e-164
1.02821e-164
8.96671e-165
8.02198e-165
7.63718e-165
8.22325e-165
9.11477e-165
9.88415e-165
1.72126e-164
1.50738e-164
1.30731e-164
1.11232e-164
9.30455e-165
7.9868e-165
7.67613e-165
8.35461e-165
9.42838e-165
1.03614e-164
1.90982e-164
1.62228e-164
1.38236e-164
1.15493e-164
9.25988e-165
7.46149e-165
7.27579e-165
8.91763e-165
1.08611e-164
1.1668e-164
2.7237e-166
2.29129e-166
2.24614e-166
2.29408e-166
2.84162e-166
2.8883e-166
-2.0277e-166
-4.30884e-166
-4.5985e-166
-6.74289e-166
2.69523e-166
2.34955e-166
2.28267e-166
2.4866e-166
3.09818e-166
3.34907e-166
-1.74498e-167
-2.32207e-166
4.09855e-167
-1.11702e-166
2.80285e-166
2.4849e-166
2.43586e-166
2.66429e-166
3.22466e-166
3.38809e-166
2.12744e-167
5.37522e-168
1.32673e-166
4.52807e-166
3.11322e-166
2.75417e-166
2.71036e-166
2.89282e-166
3.3416e-166
3.26653e-166
2.02076e-166
2.85302e-166
4.63125e-166
7.01588e-166
3.76181e-166
3.31539e-166
3.17449e-166
3.25798e-166
3.54351e-166
3.42992e-166
3.65204e-166
4.47849e-166
5.80181e-166
7.00884e-166
5.04216e-166
4.32425e-166
3.96188e-166
3.86642e-166
3.92006e-166
3.92002e-166
4.33675e-166
4.9968e-166
5.83081e-166
6.48015e-166
6.48532e-166
5.67266e-166
5.05904e-166
4.70718e-166
4.53058e-166
4.48197e-166
4.63629e-166
5.0426e-166
5.57526e-166
5.97916e-166
7.43085e-166
6.67365e-166
6.01554e-166
5.49946e-166
5.07846e-166
4.7879e-166
4.70078e-166
4.94519e-166
5.34562e-166
5.55218e-166
7.93292e-166
7.23223e-166
6.56123e-166
5.89181e-166
5.24798e-166
4.76665e-166
4.55043e-166
4.77667e-166
5.1048e-166
5.32416e-166
8.09624e-166
7.29253e-166
6.52687e-166
5.72912e-166
4.95151e-166
4.38662e-166
4.20505e-166
4.55123e-166
5.0173e-166
5.51916e-166
8.79025e-168
9.39109e-168
8.67359e-168
5.4655e-168
2.18269e-168
-1.33307e-168
-5.86996e-168
-5.11062e-168
-7.56075e-168
-1.11382e-167
9.22111e-168
9.69983e-168
9.93732e-168
7.61049e-168
3.99081e-168
7.22205e-169
-1.92673e-168
8.56224e-168
1.86529e-167
2.01074e-167
9.91146e-168
1.03168e-167
1.07323e-167
8.48481e-168
4.41721e-168
2.20544e-168
2.29661e-168
1.33301e-167
2.13175e-167
2.80177e-167
1.06696e-167
1.09214e-167
1.03321e-167
8.52628e-168
7.26237e-168
9.63642e-168
1.47572e-167
1.88925e-167
2.2028e-167
2.62493e-167
1.21202e-167
1.15304e-167
1.06256e-167
1.08245e-167
1.22906e-167
1.42662e-167
1.63583e-167
1.77188e-167
1.94379e-167
2.35695e-167
1.46524e-167
1.3565e-167
1.2947e-167
1.29548e-167
1.34836e-167
1.44708e-167
1.53892e-167
1.58878e-167
1.79104e-167
2.12616e-167
1.95529e-167
1.72239e-167
1.59185e-167
1.51148e-167
1.47102e-167
1.47396e-167
1.48954e-167
1.48097e-167
1.66101e-167
1.884e-167
2.48405e-167
2.20225e-167
1.96093e-167
1.79534e-167
1.67282e-167
1.57773e-167
1.51325e-167
1.46045e-167
1.57667e-167
1.6876e-167
2.74515e-167
2.50894e-167
2.27117e-167
2.05183e-167
1.8525e-167
1.68401e-167
1.55127e-167
1.44565e-167
1.50557e-167
1.53858e-167
2.79107e-167
2.59905e-167
2.36628e-167
2.11805e-167
1.88163e-167
1.68967e-167
1.55238e-167
1.39971e-167
1.48465e-167
1.54903e-167
2.01179e-169
2.06622e-169
2.35869e-169
2.76807e-169
3.42786e-169
4.04999e-169
5.35723e-169
6.5983e-169
7.27402e-169
7.90642e-169
2.0226e-169
2.10068e-169
2.39389e-169
2.78162e-169
3.4031e-169
4.26501e-169
5.14332e-169
5.54963e-169
6.01225e-169
7.19433e-169
2.11644e-169
2.1885e-169
2.43239e-169
2.74832e-169
3.29723e-169
4.04892e-169
4.5678e-169
4.7173e-169
5.10787e-169
6.07344e-169
2.28038e-169
2.29278e-169
2.44996e-169
2.65846e-169
3.07283e-169
3.58641e-169
3.92172e-169
4.08598e-169
4.58394e-169
5.41491e-169
2.54553e-169
2.46828e-169
2.49252e-169
2.56104e-169
2.80454e-169
3.13475e-169
3.41107e-169
3.7302e-169
4.29629e-169
4.92222e-169
3.01281e-169
2.82613e-169
2.66191e-169
2.61318e-169
2.70802e-169
2.89253e-169
3.13769e-169
3.52523e-169
4.03302e-169
4.45218e-169
3.91592e-169
3.54453e-169
3.16032e-169
2.93669e-169
2.84424e-169
2.85999e-169
3.01695e-169
3.37881e-169
3.80584e-169
4.02377e-169
5.26505e-169
4.54503e-169
3.93619e-169
3.47668e-169
3.15158e-169
2.97057e-169
2.96658e-169
3.18682e-169
3.49799e-169
3.64809e-169
6.2396e-169
5.5878e-169
4.86763e-169
4.18048e-169
3.58966e-169
3.14693e-169
2.93555e-169
3.0602e-169
3.28417e-169
3.38382e-169
6.43406e-169
5.90391e-169
5.254e-169
4.58003e-169
3.92706e-169
3.35409e-169
2.98995e-169
2.97974e-169
3.11995e-169
3.19219e-169
3.03985e-171
3.19254e-171
3.47502e-171
3.80336e-171
4.30969e-171
5.22569e-171
6.22665e-171
6.99347e-171
8.1664e-171
9.7278e-171
2.89579e-171
3.21091e-171
3.56819e-171
3.80778e-171
4.13426e-171
4.79046e-171
5.38779e-171
6.00841e-171
6.95985e-171
8.38023e-171
3.05907e-171
3.27717e-171
3.557e-171
3.70066e-171
3.99468e-171
4.48361e-171
4.84951e-171
5.37778e-171
6.17456e-171
7.43714e-171
3.34241e-171
3.39816e-171
3.47936e-171
3.52189e-171
3.79966e-171
4.1478e-171
4.37539e-171
4.89042e-171
5.63713e-171
6.70628e-171
3.70432e-171
3.59819e-171
3.53246e-171
3.50106e-171
3.64018e-171
3.83933e-171
4.02425e-171
4.49379e-171
5.24392e-171
6.08055e-171
4.39265e-171
4.16078e-171
3.95183e-171
3.80094e-171
3.74985e-171
3.78216e-171
3.9132e-171
4.27805e-171
4.96495e-171
5.56951e-171
5.97217e-171
5.60472e-171
4.97675e-171
4.56014e-171
4.26318e-171
4.0528e-171
4.0283e-171
4.2435e-171
4.67434e-171
5.17062e-171
8.16256e-171
7.51171e-171
6.60474e-171
5.82864e-171
5.16939e-171
4.61572e-171
4.29857e-171
4.28557e-171
4.44403e-171
4.71212e-171
9.94192e-171
9.08714e-171
8.06689e-171
7.04042e-171
6.07504e-171
5.22401e-171
4.61035e-171
4.42904e-171
4.33956e-171
4.27519e-171
9.99184e-171
9.13583e-171
8.27053e-171
7.338e-171
6.33054e-171
5.40643e-171
4.78618e-171
4.57104e-171
4.34569e-171
4.05107e-171
3.24548e-173
3.47392e-173
3.73562e-173
3.99502e-173
4.29031e-173
4.88448e-173
5.66737e-173
7.03001e-173
8.25016e-173
9.44001e-173
3.06805e-173
3.42643e-173
3.76507e-173
3.94091e-173
4.08574e-173
4.41321e-173
4.96702e-173
6.08236e-173
7.16866e-173
8.24992e-173
3.24945e-173
3.48642e-173
3.73094e-173
3.78746e-173
3.87672e-173
4.03645e-173
4.46967e-173
5.40784e-173
6.38139e-173
7.33301e-173
3.63976e-173
3.68246e-173
3.74332e-173
3.70161e-173
3.67763e-173
3.85773e-173
4.17425e-173
4.90911e-173
5.84169e-173
6.67728e-173
4.30034e-173
4.18451e-173
4.03836e-173
3.86521e-173
3.76669e-173
3.87187e-173
4.04944e-173
4.57986e-173
5.43783e-173
6.15842e-173
5.47391e-173
5.21582e-173
4.80623e-173
4.44662e-173
4.19668e-173
4.10903e-173
4.12321e-173
4.47251e-173
5.09161e-173
5.7563e-173
7.25056e-173
6.8388e-173
6.08019e-173
5.45961e-173
4.94189e-173
4.57034e-173
4.36769e-173
4.51658e-173
4.87169e-173
5.26441e-173
9.1331e-173
8.49821e-173
7.54899e-173
6.64626e-173
5.82461e-173
5.15288e-173
4.66551e-173
4.60907e-173
4.65719e-173
4.72131e-173
1.04983e-172
9.54407e-173
8.49071e-173
7.49814e-173
6.4487e-173
5.46405e-173
4.80753e-173
4.63823e-173
4.50246e-173
4.31498e-173
1.00176e-172
9.0738e-173
7.92373e-173
6.98039e-173
6.05506e-173
5.23926e-173
4.6606e-173
4.53293e-173
4.38158e-173
4.2276e-173
3.14147e-175
3.29902e-175
3.40401e-175
3.55062e-175
3.77436e-175
4.18055e-175
4.90271e-175
6.03259e-175
7.53847e-175
9.0637e-175
2.99183e-175
3.26211e-175
3.37277e-175
3.42155e-175
3.50216e-175
3.77755e-175
4.31476e-175
5.17765e-175
6.39758e-175
7.55636e-175
3.11305e-175
3.19083e-175
3.22217e-175
3.20387e-175
3.24474e-175
3.45286e-175
3.84366e-175
4.47158e-175
5.43813e-175
6.32467e-175
3.43098e-175
3.26056e-175
3.14839e-175
3.1195e-175
3.15917e-175
3.31259e-175
3.54895e-175
3.96237e-175
4.68756e-175
5.39722e-175
4.00225e-175
3.64399e-175
3.44957e-175
3.38346e-175
3.33272e-175
3.36336e-175
3.44801e-175
3.66391e-175
4.13409e-175
4.73846e-175
4.86673e-175
4.44785e-175
4.17646e-175
3.93013e-175
3.72847e-175
3.58841e-175
3.52363e-175
3.59406e-175
3.81963e-175
4.38045e-175
6.04696e-175
5.62061e-175
5.17609e-175
4.70717e-175
4.27643e-175
3.92779e-175
3.71394e-175
3.6733e-175
3.7892e-175
4.30522e-175
7.11214e-175
6.62739e-175
6.10777e-175
5.4947e-175
4.83297e-175
4.29578e-175
3.94358e-175
3.83524e-175
3.92633e-175
4.50068e-175
7.54771e-175
7.0186e-175
6.57012e-175
5.93425e-175
5.21815e-175
4.59144e-175
4.13484e-175
4.04406e-175
4.23618e-175
5.09768e-175
7.36903e-175
6.70199e-175
6.29072e-175
5.59671e-175
5.06702e-175
4.68838e-175
4.40061e-175
4.31096e-175
4.71441e-175
6.21022e-175
2.93915e-177
2.98686e-177
2.99543e-177
3.02891e-177
3.13945e-177
3.5053e-177
4.15019e-177
5.13706e-177
6.45514e-177
8.04258e-177
2.55797e-177
2.65518e-177
2.66164e-177
2.69387e-177
2.83055e-177
3.11136e-177
3.58316e-177
4.28118e-177
5.2382e-177
6.36914e-177
2.56757e-177
2.5123e-177
2.48816e-177
2.51325e-177
2.60357e-177
2.79076e-177
3.1045e-177
3.59786e-177
4.33643e-177
5.33398e-177
2.78712e-177
2.60954e-177
2.51568e-177
2.49821e-177
2.52034e-177
2.62178e-177
2.81187e-177
3.17292e-177
3.80615e-177
4.90917e-177
3.31752e-177
3.06148e-177
2.87119e-177
2.74538e-177
2.67153e-177
2.66361e-177
2.74642e-177
3.02863e-177
3.70604e-177
5.23501e-177
4.14672e-177
3.86409e-177
3.56253e-177
3.27001e-177
3.04895e-177
2.90672e-177
2.90057e-177
3.17315e-177
4.07895e-177
6.51615e-177
5.22715e-177
4.98084e-177
4.52377e-177
4.03509e-177
3.60101e-177
3.30277e-177
3.24578e-177
3.6245e-177
5.08603e-177
9.32726e-177
6.38857e-177
6.10624e-177
5.49081e-177
4.84118e-177
4.22962e-177
3.85502e-177
3.82266e-177
4.48034e-177
7.02828e-177
1.47478e-176
7.45812e-177
6.81348e-177
6.08688e-177
5.37779e-177
4.81395e-177
4.67805e-177
4.88996e-177
6.11524e-177
1.0575e-176
2.43024e-176
8.23292e-177
6.62027e-177
5.90797e-177
5.28808e-177
5.15731e-177
5.72255e-177
6.82203e-177
9.41576e-177
1.72123e-176
3.94386e-176
3.62585e-179
3.43736e-179
3.25092e-179
3.08927e-179
3.07697e-179
3.38919e-179
4.04557e-179
5.26736e-179
7.42329e-179
1.10482e-178
2.74384e-179
2.70673e-179
2.56789e-179
2.51971e-179
2.60063e-179
2.86093e-179
3.36884e-179
4.30494e-179
6.07003e-179
9.1545e-179
2.51804e-179
2.4001e-179
2.30902e-179
2.28262e-179
2.35697e-179
2.56589e-179
3.00583e-179
3.92263e-179
5.82686e-179
9.51857e-179
2.63932e-179
2.46217e-179
2.33753e-179
2.29321e-179
2.32796e-179
2.50703e-179
2.98593e-179
4.15766e-179
6.81228e-179
1.24737e-178
3.1089e-179
2.88986e-179
2.71724e-179
2.59651e-179
2.57257e-179
2.75646e-179
3.41615e-179
5.23155e-179
9.63262e-179
1.9416e-178
3.95684e-179
3.72486e-179
3.49596e-179
3.2827e-179
3.19308e-179
3.44269e-179
4.50293e-179
7.5812e-179
1.53525e-178
3.31188e-178
5.25291e-179
5.13281e-179
4.88752e-179
4.57253e-179
4.42253e-179
4.83579e-179
6.6669e-179
1.21079e-178
2.62344e-178
5.93695e-178
7.2383e-179
7.35964e-179
7.15583e-179
6.7653e-179
6.66437e-179
7.50606e-179
1.08228e-178
2.05606e-178
4.63941e-178
1.08884e-177
1.03898e-178
1.0807e-178
1.06395e-178
1.01881e-178
1.04837e-178
1.25294e-178
1.89379e-178
3.66264e-178
8.38366e-178
1.95824e-177
1.62329e-178
1.61923e-178
1.57544e-178
1.54343e-178
1.64915e-178
2.09193e-178
3.32726e-178
6.57933e-178
1.49033e-177
3.28923e-177
4.98745e-181
4.47153e-181
3.94318e-181
3.58017e-181
3.49929e-181
3.83893e-181
4.80359e-181
6.89519e-181
1.10078e-180
1.84497e-180
3.37984e-181
3.2839e-181
3.03171e-181
2.87736e-181
2.94203e-181
3.36903e-181
4.39201e-181
6.48334e-181
1.04884e-180
1.65777e-180
2.88023e-181
2.79244e-181
2.6385e-181
2.58334e-181
2.7479e-181
3.31231e-181
4.629e-181
7.37205e-181
1.23885e-180
2.04041e-180
2.96997e-181
2.85461e-181
2.71608e-181
2.69887e-181
2.97144e-181
3.82038e-181
5.82942e-181
1.00592e-180
1.78778e-180
3.10955e-180
3.58523e-181
3.43719e-181
3.3005e-181
3.32173e-181
3.77286e-181
5.16934e-181
8.54349e-181
1.58305e-180
2.94396e-180
5.33619e-180
4.88462e-181
4.72398e-181
4.58938e-181
4.67976e-181
5.46604e-181
7.89877e-181
1.38457e-180
2.68745e-180
5.15661e-180
9.5727e-180
7.14684e-181
7.12877e-181
7.11335e-181
7.37637e-181
8.79586e-181
1.30707e-180
2.36365e-180
4.71748e-180
9.28434e-180
1.75426e-179
1.10993e-180
1.14543e-180
1.17425e-180
1.24527e-180
1.50583e-180
2.24732e-180
4.07292e-180
8.23507e-180
1.69413e-179
3.25306e-179
1.78236e-180
1.86709e-180
1.9468e-180
2.09739e-180
2.57302e-180
3.82457e-180
6.85061e-180
1.39324e-179
2.94668e-179
5.80601e-179
3.12291e-180
3.05208e-180
3.16344e-180
3.44743e-180
4.16934e-180
6.03431e-180
1.0592e-179
2.16102e-179
4.83806e-179
1.04291e-178
3.57168e-183
3.22634e-183
2.76832e-183
2.35535e-183
2.10417e-183
2.20159e-183
2.79084e-183
4.21069e-183
6.88112e-183
1.11226e-182
2.52503e-183
2.61261e-183
2.30152e-183
1.96711e-183
1.89038e-183
2.13643e-183
2.90234e-183
4.52981e-183
7.22659e-183
1.01033e-182
2.2962e-183
2.36677e-183
2.12785e-183
1.88508e-183
1.90129e-183
2.29535e-183
3.34991e-183
5.44519e-183
8.60087e-183
1.22475e-182
2.72414e-183
2.71714e-183
2.46125e-183
2.26076e-183
2.32386e-183
2.92865e-183
4.50371e-183
7.58044e-183
1.21246e-182
1.79252e-182
3.96185e-183
3.84213e-183
3.50763e-183
3.23665e-183
3.33478e-183
4.29651e-183
6.84963e-183
1.18574e-182
1.9618e-182
2.98705e-182
6.52435e-183
6.11559e-183
5.46037e-183
4.98047e-183
5.17941e-183
6.83575e-183
1.12629e-182
2.0213e-182
3.44059e-182
5.33396e-182
1.13573e-182
1.03689e-182
9.12142e-183
8.17473e-183
8.45982e-183
1.13187e-182
1.91876e-182
3.57856e-182
6.31089e-182
9.99546e-182
2.00181e-182
1.80088e-182
1.56646e-182
1.37001e-182
1.40284e-182
1.88071e-182
3.23978e-182
6.24977e-182
1.18906e-181
1.91761e-181
3.50491e-182
3.04602e-182
2.56774e-182
2.24222e-182
2.24674e-182
2.95185e-182
5.04267e-182
1.02087e-181
2.0417e-181
3.46516e-181
6.76038e-182
4.99826e-182
3.98014e-182
3.33498e-182
3.2436e-182
4.07117e-182
6.74038e-182
1.37639e-181
3.02448e-181
6.32737e-181
7.90747e-186
7.80723e-186
5.78884e-186
3.2084e-186
3.45425e-186
5.52463e-186
8.46194e-186
1.17059e-185
1.7347e-185
2.5932e-185
7.74839e-186
6.85768e-186
2.58771e-186
1.34797e-186
4.67731e-186
6.43735e-186
7.6204e-186
1.00586e-185
1.48459e-185
2.01432e-185
8.65353e-186
5.71638e-186
2.40785e-186
2.02744e-186
5.28465e-186
6.24593e-186
7.18632e-186
9.49162e-186
1.31368e-185
1.73689e-185
1.262e-185
9.13337e-186
5.77242e-186
3.60746e-186
4.13317e-186
6.53426e-186
8.17458e-186
1.05292e-185
1.40053e-185
1.83064e-185
2.17913e-185
1.89238e-185
1.43201e-185
8.30058e-186
4.92286e-186
6.80596e-186
1.03293e-185
1.31641e-185
1.74797e-185
2.30697e-185
4.03598e-185
3.52179e-185
2.81398e-185
1.9953e-185
1.19047e-185
9.33573e-186
1.34383e-185
1.81778e-185
2.47734e-185
3.36889e-185
7.6246e-185
6.33014e-185
4.83946e-185
3.47979e-185
2.34346e-185
1.55657e-185
1.73237e-185
2.71281e-185
4.1037e-185
5.73338e-185
1.44058e-184
1.14573e-184
8.36107e-185
5.7554e-185
3.86581e-185
2.73467e-185
2.79234e-185
4.54472e-185
7.58995e-185
1.07275e-184
2.66002e-184
1.98859e-184
1.40595e-184
8.99409e-185
5.83585e-185
4.34017e-185
4.4836e-185
7.09546e-185
1.31702e-184
1.94962e-184
4.92794e-184
3.26219e-184
2.11527e-184
1.29102e-184
8.06875e-185
5.72741e-185
5.50899e-185
8.47216e-185
1.71535e-184
3.22282e-184
-7.3771e-188
-5.41552e-188
-7.24894e-188
-1.76157e-187
-1.15665e-187
5.9427e-188
8.65367e-188
9.65625e-188
1.2888e-187
1.9331e-187
2.74452e-188
3.03455e-188
2.6016e-190
-1.03326e-187
-1.83179e-187
9.24444e-188
8.90619e-188
8.85045e-188
1.08632e-187
1.5238e-187
5.16776e-188
4.94683e-188
1.12446e-188
-4.98832e-188
-3.58665e-188
1.04851e-187
8.56821e-188
7.83303e-188
9.0734e-188
1.22941e-187
1.04242e-187
1.08975e-187
1.22344e-187
1.25995e-187
1.08292e-187
1.01339e-187
7.98977e-188
7.09084e-188
7.80014e-188
1.03356e-187
1.59811e-187
1.42774e-187
1.32522e-187
1.31863e-187
1.17567e-187
9.40065e-188
7.38518e-188
6.44886e-188
6.83724e-188
8.86847e-188
2.77968e-187
2.28002e-187
1.6986e-187
1.2111e-187
9.27647e-188
8.03021e-188
6.59578e-188
5.54586e-188
5.64465e-188
7.43968e-188
4.65511e-187
3.48662e-187
2.50002e-187
1.71358e-187
9.52332e-188
4.72592e-188
3.21723e-188
3.04569e-188
4.79826e-188
7.34738e-188
7.98317e-187
5.53669e-187
3.6971e-187
2.40311e-187
1.44047e-187
5.24175e-188
1.59238e-188
3.43287e-188
6.58495e-188
9.26355e-188
1.37587e-186
9.0354e-187
5.68163e-187
3.38128e-187
1.9026e-187
9.94568e-188
5.01607e-188
7.34027e-188
8.52022e-188
1.03279e-187
2.31595e-186
1.42873e-186
8.40049e-187
4.66203e-187
2.48549e-187
1.38989e-187
8.92203e-188
7.6424e-188
8.21956e-188
1.11102e-187
-3.91593e-189
-9.5715e-189
-1.68536e-188
-1.27604e-188
4.37051e-189
3.66269e-189
2.36632e-189
1.71517e-189
1.52313e-189
1.71157e-189
-1.03444e-188
-1.02638e-188
-1.33366e-188
-1.11507e-188
5.33951e-189
4.60925e-189
2.90069e-189
1.99074e-189
1.58013e-189
1.55338e-189
-4.0178e-189
-6.10511e-189
-9.96755e-189
-3.63083e-189
7.1487e-189
5.05737e-189
3.16896e-189
2.10174e-189
1.57915e-189
1.42952e-189
-3.53394e-189
-7.53872e-189
-6.98859e-189
3.84703e-189
6.98203e-189
4.90082e-189
3.15809e-189
2.10396e-189
1.53651e-189
1.31482e-189
2.51253e-189
5.73695e-190
4.70488e-190
5.66676e-189
5.82571e-189
4.20155e-189
2.85022e-189
1.95423e-189
1.43134e-189
1.19065e-189
5.23427e-189
5.45899e-189
5.75823e-189
5.84743e-189
4.71273e-189
3.41589e-189
2.38589e-189
1.67251e-189
1.23858e-189
1.02422e-189
5.71421e-189
5.2805e-189
4.87258e-189
4.44991e-189
3.59191e-189
2.72464e-189
2.02559e-189
1.48235e-189
1.12451e-189
9.31863e-190
6.19049e-189
4.64559e-189
3.75074e-189
3.21019e-189
2.90546e-189
2.37688e-189
1.8068e-189
1.35322e-189
1.05474e-189
8.86321e-190
7.72816e-189
5.13574e-189
3.74789e-189
2.62213e-189
2.00896e-189
2.0245e-189
1.51722e-189
1.15162e-189
9.35327e-190
7.92239e-190
1.06707e-188
6.69847e-189
4.9044e-189
3.2998e-189
1.33637e-189
1.53904e-189
1.24881e-189
9.16558e-190
7.57729e-190
6.90562e-190
1.58597e-190
1.87905e-190
1.268e-190
-5.0775e-190
-3.05301e-190
1.33411e-190
9.52083e-191
6.55468e-191
4.68178e-191
3.58414e-191
1.8882e-190
1.99158e-190
-4.05446e-191
-7.85347e-190
-1.37485e-190
1.89433e-190
1.26974e-190
8.49241e-191
5.83801e-191
4.11294e-191
2.04246e-190
1.66012e-190
-2.36537e-190
-7.51093e-190
7.07789e-191
2.36683e-190
1.54508e-190
1.0154e-190
6.82289e-191
4.63365e-191
1.67734e-190
5.8731e-191
-4.47029e-190
-6.56257e-190
1.78329e-190
2.63909e-190
1.7358e-190
1.14271e-190
7.59626e-191
5.06713e-191
-6.78748e-191
-3.72929e-190
-5.99764e-190
-5.21106e-190
2.17745e-190
2.52381e-190
1.73463e-190
1.17948e-190
7.94881e-191
5.30144e-191
-3.3574e-190
-4.68828e-190
-5.00498e-190
-1.3138e-190
2.69016e-190
2.34029e-190
1.66636e-190
1.15327e-190
7.82036e-191
5.22551e-191
-8.08653e-192
-1.13412e-191
4.5981e-191
2.32116e-190
2.49483e-190
1.95932e-190
1.43417e-190
1.07065e-190
7.71275e-191
5.25196e-191
1.89383e-190
1.90804e-190
2.01936e-190
2.08807e-190
1.91158e-190
1.59305e-190
1.38792e-190
1.05873e-190
7.57026e-191
5.20456e-191
1.35494e-190
1.17877e-190
1.48407e-190
1.3281e-190
1.37228e-190
1.41724e-190
1.18507e-190
9.08053e-191
6.70511e-191
4.73949e-191
2.04593e-191
7.51818e-191
1.51271e-190
1.26894e-190
6.06176e-191
1.01283e-190
9.19811e-191
7.20604e-191
5.47329e-191
4.13804e-191
7.03659e-192
7.59884e-192
7.80379e-192
3.96091e-192
1.96396e-192
5.89332e-192
5.08899e-192
4.12094e-192
3.23796e-192
2.43258e-192
1.02339e-191
1.13815e-191
1.17084e-191
7.91406e-193
4.98391e-192
8.52232e-192
7.20751e-192
5.81556e-192
4.42223e-192
3.22412e-192
1.49237e-191
1.70054e-191
1.68247e-191
1.73985e-192
9.18333e-192
1.19594e-191
9.74169e-192
7.7941e-192
5.85559e-192
4.1493e-192
2.11878e-191
2.39759e-191
2.06555e-191
-4.96954e-194
1.47959e-191
1.54796e-191
1.25728e-191
9.9299e-192
7.35402e-192
5.11584e-192
2.66843e-191
2.73681e-191
1.18763e-191
-3.20971e-192
1.88104e-191
1.75841e-191
1.41227e-191
1.15011e-191
8.4294e-192
5.79297e-192
1.7329e-191
8.1274e-192
-6.70929e-193
2.64209e-192
2.11291e-191
1.88488e-191
1.52344e-191
1.19955e-191
8.5318e-192
5.9601e-192
5.19995e-192
3.34441e-192
2.54288e-192
1.73927e-191
2.14166e-191
1.80256e-191
1.426e-191
1.25557e-191
9.49819e-192
6.45629e-192
1.30244e-191
1.44384e-191
1.81234e-191
2.15031e-191
2.03356e-191
1.74082e-191
1.53732e-191
1.31982e-191
9.32449e-192
6.02952e-192
1.34133e-191
1.6252e-191
1.7933e-191
1.8114e-191
1.72254e-191
1.7007e-191
1.50888e-191
1.15497e-191
7.93116e-192
5.22889e-192
6.51021e-192
1.19079e-191
1.66818e-191
1.71771e-191
1.32839e-191
1.10878e-191
1.19709e-191
9.01251e-192
6.27996e-192
4.29525e-192
2.68084e-193
3.01151e-193
3.19464e-193
3.22303e-193
2.75966e-193
2.58972e-193
2.15075e-193
1.56005e-193
1.1031e-193
7.58245e-194
4.31343e-193
5.01089e-193
5.40277e-193
4.97924e-193
4.29575e-193
3.76705e-193
3.10097e-193
2.28618e-193
1.56893e-193
1.04821e-193
6.66574e-193
7.93571e-193
8.15701e-193
7.36972e-193
6.25122e-193
5.45197e-193
4.2595e-193
3.16904e-193
2.14599e-193
1.39892e-193
1.0147e-192
1.13332e-192
1.09575e-192
9.50803e-193
8.21406e-193
7.01722e-193
5.48233e-193
4.11115e-193
2.7571e-193
1.74449e-193
1.28077e-192
1.31887e-192
1.2066e-192
1.02564e-192
9.19547e-193
6.8612e-193
4.88158e-193
4.2304e-193
2.68649e-193
1.72165e-193
9.56646e-193
8.65517e-193
7.74083e-193
8.72878e-193
8.83874e-193
5.5906e-193
4.90537e-193
4.49537e-193
3.18697e-193
2.11537e-193
2.97998e-193