/*--------------------------------*- C++ -*----------------------------------*\
  =========                 |
  \\      /  F ield         | OpenFOAM: The Open Source CFD Toolbox
   \\    /   O peration     | Website:  https://openfoam.org
    \\  /    A nd           | Version:  9
     \\/     M anipulation  |
\*---------------------------------------------------------------------------*/
FoamFile
{
    format      ascii;
    class       volScalarField;
    location    "1";
    object      p_rgh;
}
// * * * * * * * * * * * * * * * * * * * * * * * * * * * * * * * * * * * * * //

dimensions      [1 -1 -2 0 0 0 0];

internalField   nonuniform List<scalar> 
137980
(
147319
149790
150560
150688
151265
151579
151011
149727
147783
148841
150170
150688
151470
152275
152955
153113
152444
151090
149619
148941
149617
150746
151959
153077
153765
153682
152822
151384
150094
149425
147096
149176
151563
153207
153944
153851
152977
151548
150114
149094
144807
147966
151094
152925
153707
153726
152978
151441
149510
147906
144307
148247
151099
152404
152988
153183
152715
151063
149079
148057
145887
149330
151036
151581
151795
152137
152148
151400
150628
149922
147880
150137
150722
150075
149606
150140
150926
151162
151001
149795
147869
150227
150080
147815
146296
146886
148258
149559
149800
145626
147663
149426
149082
145238
142424
143161
145479
147994
147480
146099
124294
126222
127710
128405
127639
128375
128885
129238
130447
128942
127634
126910
127419
128782
129677
130925
132107
132791
132806
129205
129046
127229
128239
129806
131172
132297
132862
132924
132098
130390
125543
127275
128908
130423
131808
132617
132799
132316
131319
130408
123077
126754
128974
130230
131538
132183
132167
131498
130705
130006
126465
128509
129090
129811
130677
130995
130865
130386
129620
129091
130832
129772
128714
129065
129275
129096
128937
129153
128940
127984
130343
128744
127986
128131
127756
127591
127038
127547
127448
126119
127196
127825
128342
127815
126276
125929
126641
126615
126278
124676
125640
127132
128474
127147
124016
123542
126076
127596
125790
124540
110215
109863
110048
110203
110260
110355
110429
110755
111212
111488
109885
109578
109645
109749
109837
110100
110509
110949
111374
111713
110227
109869
109830
109826
109903
110176
110476
110809
111156
111589
110470
110029
109938
109860
109926
110106
110267
110486
110757
111304
110652
110092
109975
109773
109809
109856
109910
110093
110299
110852
111010
110133
109832
109613
109558
109499
109485
109661
109994
110697
111288
110238
109508
109400
109264
109092
109028
109258
109814
110476
111289
110405
109730
109432
109054
108820
108683
108916
109553
110176
111199
110760
110426
110008
109468
109015
108817
109003
109479
109950
111080
111155
111135
110955
110625
110210
109786
109564
109801
109983
106279
106262
106257
106212
106130
106023
105866
105854
106016
106139
106214
106172
106134
106043
105940
105750
105696
105789
105940
106075
106133
106055
105943
105755
105483
105496
105588
105698
105834
105961
106035
105892
105711
105535
105423
105451
105503
105593
105708
105813
106030
105812
105618
105521
105469
105442
105435
105490
105588
105717
106295
106128
105924
105744
105595
105479
105384
105430
105552
105813
106544
106397
106204
105990
105764
105546
105363
105490
105759
106009
106762
106632
106452
106212
105931
105637
105456
105686
105956
106166
106946
106842
106663
106393
106077
105731
105615
105888
106117
106246
107088
107006
106798
106519
106203
105859
105896
106087
106202
106282
103227
103233
103213
103187
103152
103109
103103
103111
103124
103195
103255
103239
103211
103179
103142
103119
103122
103126
103135
103150
103291
103253
103210
103167
103132
103130
103130
103128
103119
103099
103327
103274
103217
103162
103158
103151
103137
103114
103088
103053
103356
103310
103267
103253
103228
103189
103141
103092
103058
103020
103462
103436
103400
103351
103289
103217
103139
103068
103059
103045
103588
103556
103502
103426
103335
103235
103128
103084
103107
103099
103701
103653
103571
103471
103361
103241
103110
103134
103158
103155
103765
103700
103606
103486
103371
103218
103169
103199
103210
103211
103771
103715
103618
103483
103332
103195
103217
103255
103255
103258
101582
101571
101552
101532
101518
101526
101543
101562
101584
101626
101624
101617
101599
101580
101571
101578
101588
101591
101590
101582
101667
101662
101644
101624
101616
101616
101614
101605
101589
101563
101712
101707
101691
101671
101657
101645
101630
101608
101581
101546
101761
101757
101741
101719
101695
101668
101638
101607
101575
101537
101818
101812
101793
101764
101727
101683
101640
101597
101572
101544
101870
101860
101834
101795
101745
101688
101623
101586
101576
101563
101883
101870
101845
101806
101752
101679
101593
101577
101602
101596
101864
101847
101816
101764
101693
101609
101556
101601
101634
101629
101819
101795
101756
101692
101582
101557
101597
101632
101657
101654
100782
100774
100764
100754
100745
100742
100743
100746
100754
100766
100804
100797
100789
100781
100777
100774
100773
100769
100764
100750
100823
100819
100813
100807
100803
100799
100793
100784
100770
100749
100850
100845
100837
100830
100823
100816
100806
100792
100774
100750
100878
100873
100863
100852
100840
100828
100813
100796
100776
100752
100905
100901
100888
100871
100853
100834
100817
100798
100778
100755
100930
100924
100908
100884
100857
100829
100800
100785
100774
100761
100939
100931
100914
100887
100853
100813
100773
100773
100773
100771
100934
100924
100900
100864
100820
100774
100750
100768
100789
100789
100916
100899
100864
100818
100768
100716
100728
100766
100802
100801
100400
100391
100377
100372
100370
100368
100366
100365
100366
100368
100395
100396
100391
100388
100386
100384
100381
100377
100374
100365
100391
100401
100405
100403
100400
100397
100392
100387
100380
100370
100396
100407
100416
100414
100410
100406
100400
100393
100386
100374
100410
100418
100423
100421
100417
100411
100404
100397
100389
100377
100437
100432
100429
100425
100419
100412
100405
100399
100391
100380
100457
100450
100438
100426
100417
100407
100398
100392
100388
100381
100457
100450
100438
100425
100412
100399
100386
100382
100384
100384
100454
100447
100435
100420
100403
100387
100371
100372
100378
100385
100451
100440
100426
100408
100389
100369
100354
100359
100370
100385
100214
100210
100208
100206
100205
100203
100203
100203
100203
100202
100213
100214
100214
100213
100212
100210
100208
100207
100205
100202
100212
100217
100219
100219
100217
100214
100212
100210
100208
100203
100212
100219
100223
100224
100221
100218
100214
100212
100209
100204
100216
100222
100226
100227
100223
100219
100215
100213
100210
100204
100221
100226
100229
100229
100224
100220
100216
100213
100211
100205
100229
100230
100231
100229
100224
100218
100213
100210
100208
100205
100237
100235
100231
100228
100223
100216
100209
100206
100205
100204
100239
100235
100231
100226
100220
100212
100205
100203
100202
100202
100239
100235
100229
100222
100214
100206
100199
100198
100200
100203
100141
100140
100140
100139
100139
100139
100139
100139
100138
100138
100139
100140
100141
100141
100141
100141
100141
100140
100139
100139
100138
100141
100143
100143
100143
100142
100142
100141
100140
100139
100139
100141
100144
100144
100144
100143
100143
100141
100140
100139
100140
100143
100145
100145
100144
100144
100143
100141
100140
100139
100142
100145
100145
100145
100145
100144
100143
100141
100140
100139
100145
100147
100147
100146
100145
100144
100143
100141
100140
100138
100150
100149
100148
100147
100145
100143
100142
100140
100139
100138
100153
100152
100150
100147
100144
100142
100140
100139
100139
100139
100153
100151
100149
100146
100143
100140
100138
100138
100138
100139
100117
100117
100117
100117
100117
100117
100117
100117
100117
100117
100117
100117
100118
100118
100118
100117
100117
100117
100117
100117
100117
100117
100118
100118
100118
100118
100118
100118
100117
100117
100117
100117
100118
100118
100118
100118
100118
100118
100118
100117
100117
100118
100118
100118
100118
100118
100118
100118
100118
100117
100118
100118
100119
100119
100118
100118
100118
100118
100118
100117
100119
100119
100119
100119
100119
100118
100118
100118
100118
100118
100120
100120
100120
100120
100119
100118
100118
100118
100118
100118
100121
100121
100120
100120
100119
100118
100118
100118
100118
100118
100122
100121
100120
100119
100118
100118
100117
100117
100117
100118
100111
100111
100111
100111
100111
100111
100111
100111
100111
100111
100111
100111
100111
100111
100111
100111
100111
100111
100111
100111
100111
100111
100111
100111
100111
100111
100111
100111
100111
100111
100111
100111
100111
100111
100111
100111
100111
100111
100111
100111
100111
100111
100111
100111
100111
100111
100111
100111
100111
100111
100111
100111
100111
100111
100111
100111
100111
100111
100111
100111
100111
100112
100111
100111
100111
100111
100111
100111
100111
100111
100112
100112
100112
100111
100111
100111
100111
100111
100111
100111
100112
100112
100112
100111
100111
100111
100111
100111
100111
100111
100112
100112
100111
100111
100111
100111
100111
100111
100111
100111
100110
100110
100110
100110
100109
100109
100109
100109
100109
100109
100110
100110
100110
100110
100110
100109
100109
100109
100109
100109
100110
100110
100110
100110
100110
100109
100109
100109
100109
100109
100110
100110
100110
100110
100110
100109
100109
100109
100109
100109
100110
100110
100110
100110
100109
100109
100109
100109
100109
100109
100110
100110
100110
100110
100109
100109
100109
100109
100109
100109
100110
100110
100110
100109
100109
100109
100109
100109
100109
100109
100110
100110
100109
100109
100109
100109
100109
100109
100109
100109
100110
100110
100109
100109
100109
100109
100109
100109
100109
100109
100110
100109
100109
100109
100109
100109
100109
100109
100109
100109
100109
100109
100109
100109
100109
100109
100109
100109
100109
100109
100109
100109
100109
100109
100109
100109
100109
100109
100109
100109
100110
100109
100109
100109
100109
100109
100109
100109
100109
100109
100110
100109
100109
100109
100109
100109
100109
100109
100109
100109
100109
100109
100109
100109
100109
100109
100109
100109
100109
100109
100109
100109
100109
100109
100109
100109
100109
100109
100109
100109
100109
100109
100109
100109
100109
100109
100109
100109
100109
100108
100109
100109
100109
100109
100109
100109
100109
100109
100108
100108
100109
100109
100109
100109
100109
100109
100109
100108
100108
100108
100109
100109
100109
100109
100109
100109
100108
100108
100108
100108
100110
100110
100110
100109
100109
100109
100109
100109
100109
100109
100110
100110
100110
100109
100109
100109
100109
100109
100109
100109
100110
100110
100110
100109
100109
100109
100109
100109
100109
100109
100110
100110
100109
100109
100109
100109
100109
100109
100109
100109
100110
100110
100109
100109
100109
100109
100109
100109
100109
100109
100110
100110
100109
100109
100109
100109
100109
100109
100109
100109
100110
100109
100109
100109
100109
100109
100109
100109
100109
100109
100110
100109
100109
100109
100109
100109
100109
100109
100109
100109
100109
100109
100109
100109
100109
100109
100109
100109
100109
100109
100109
100109
100109
100109
100109
100109
100109
100109
100109
100108
100110
100110
100110
100110
100110
100110
100110
100109
100109
100109
100110
100110
100110
100110
100110
100110
100110
100109
100109
100109
100110
100110
100110
100110
100110
100110
100109
100109
100109
100109
100110
100110
100110
100110
100110
100110
100109
100109
100109
100109
100110
100110
100110
100110
100110
100110
100109
100109
100109
100109
100110
100110
100110
100110
100110
100109
100109
100109
100109
100109
100110
100110
100110
100110
100110
100109
100109
100109
100109
100109
100110
100110
100110
100110
100110
100109
100109
100109
100109
100109
100110
100110
100110
100110
100109
100109
100109
100109
100109
100109
100110
100110
100110
100110
100109
100109
100109
100109
100109
100109
100110
100110
100110
100110
100110
100110
100110
100110
100110
100110
100110
100110
100110
100110
100110
100110
100110
100110
100110
100110
100110
100110
100110
100110
100110
100110
100110
100110
100110
100110
100110
100110
100110
100110
100110
100110
100110
100110
100110
100110
100110
100110
100110
100110
100110
100110
100110
100110
100110
100110
100110
100110
100110
100110
100110
100110
100110
100110
100110
100110
100110
100110
100110
100110
100110
100110
100110
100110
100110
100110
100110
100110
100110
100110
100110
100110
100110
100110
100110
100110
100110
100110
100110
100110
100110
100110
100110
100110
100110
100110
100110
100110
100110
100110
100110
100110
100110
100110
100110
100110
100110
100110
100110
100110
100110
100110
100110
100110
100110
100110
100110
100110
100110
100110
100110
100110
100110
100110
100110
100110
100110
100110
100110
100110
100110
100110
100110
100110
100110
100110
100110
100110
100110
100110
100110
100110
100110
100110
100110
100110
100110
100110
100110
100110
100110
100110
100110
100110
100110
100110
100110
100110
100110
100110
100110
100110
100110
100110
100110
100110
100110
100110
100110
100110
100110
100110
100110
100110
100110
100110
100110
100110
100110
100110
100110
100110
100110
100110
100110
100110
100110
100110
100110
100110
100110
100110
100110
100110
100110
100110
100110
100110
100110
100110
100110
100110
100110
100110
100110
100110
100110
100110
100110
100110
100110
100110
100110
100110
100110
100110
100110
100110
100110
100110
100110
100110
100110
100110
100110
100110
100110
100110
100110
100110
100110
100110
100110
100110
100110
100110
100110
100110
100110
100110
100110
100110
100110
100110
100110
100110
100110
100110
100110
100110
100110
100110
100110
100110
100110
100110
100110
100110
100110
100110
100110
100110
100110
100110
100110
100110
100110
100110
100110
100110
100110
100110
100110
100110
100110
100110
100110
100110
100110
100110
100110
100110
100110
100110
100110
100110
100110
100110
100110
100110
100110
100110
100110
100110
100110
100110
100110
100110
100110
100110
100110
100110
100110
100110
100110
100110
100110
100110
100110
100110
100110
100110
100110
100110
100110
100110
100110
100110
100110
100110
100110
100110
100110
100110
100110
100110
100110
100110
100110
100110
100110
100110
100110
100110
100110
100110
100110
100110
100110
100110
100110
100110
100110
100110
100110
100110
100110
100110
100110
100110
100110
100110
100110
100110
100110
100110
100110
100110
100110
100110
100110
100110
100110
100110
100110
100110
100110
100110
100110
100110
100110
100110
100110
100110
100110
100110
100110
100110
100110
100110
100110
100110
100110
100110
100110
100110
100110
100110
100110
100110
100110
100110
100110
100110
100110
100110
100110
100110
100110
100110
100110
100110
100110
100110
100110
100110
100110
100110
100110
100110
100110
100110
100110
100110
100110
100110
100110
100110
100110
100110
100110
100110
100110
100110
100110
100110
100110
100110
100110
100110
100110
100110
100110
100110
100110
100110
100110
100110
100110
100110
100110
100110
100110
100110
100110
100110
100110
100110
100110
100110
100110
100110
100110
100110
100110
100110
100110
100110
100110
100110
100110
100110
100110
100110
100110
100110
100110
100110
100110
100110
100110
100110
100110
100110
100110
100110
100110
100110
100110
100110
100110
100110
100110
100110
100110
100110
100110
100110
100110
100110
100110
100110
100110
100110
100110
100110
100110
100110
100110
100110
100110
100110
100110
100110
100110
100110
100110
100110
100110
100110
100110
100110
100110
100110
100110
100110
100110
100110
100110
100110
100110
100110
100110
100110
100110
100110
100110
100110
100110
100110
100110
100110
100110
100110
100110
100110
100110
100110
100110
100110
100110
100110
100110
100110
100110
100110
100110
100110
100110
100110
100110
100110
100110
100110
100110
100110
100110
100110
100110
100110
100110
100110
100110
100110
100110
100110
100110
100110
100110
100110
100110
100110
100110
100110
100110
100110
100110
100110
100110
100110
100110
100110
100110
100110
100110
100110
100110
100110
100110
100110
100110
100110
100110
100110
100110
100110
100110
100110
100110
100110
100110
100110
100110
100110
100110
100110
100110
100110
100110
100110
100110
100110
100110
100110
100110
100110
100110
100110
100110
100110
100110
100110
100110
100110
100110
100110
100110
100110
100110
100110
100110
100110
100110
100110
100110
100110
100109
100110
100110
100110
100110
100110
100110
100110
100110
100110
100109
100110
100110
100110
100110
100110
100110
100110
100110
100110
100109
100110
100110
100110
100110
100110
100110
100110
100110
100110
100110
100110
100110
100110
100110
100110
100110
100110
100110
100110
100110
100110
100110
100110
100110
100110
100110
100110
100110
100110
100110
100110
100110
100110
100110
100110
100110
100110
100110
100110
100110
100110
100110
100110
100110
100110
100110
100110
100110
100110
100109
100109
100109
100109
100109
100109
100109
100109
100109
100109
100109
100109
100109
100109
100109
100109
100109
100109
100109
100109
100109
100109
100109
100109
100109
100109
100109
100109
100109
100109
100109
100109
100109
100109
100109
100109
100109
100109
100109
100109
100109
100109
100109
100109
100109
100109
100109
100109
100109
100109
100109
100109
100109
100109
100109
100109
100109
100109
100109
100109
100109
100109
100109
100109
100109
100109
100109
100109
100109
100109
100109
100109
100109
100109
100109
100109
100109
100109
100109
100109
100109
100109
100109
100109
100109
100109
100109
100109
100109
100109
100109
100109
100109
100109
100109
100109
100109
100109
100109
100109
174464
174462
174459
174455
174454
174454
174455
174459
174462
174464
174462
174459
174456
174453
174452
174452
174453
174456
174459
174462
174459
174456
174453
174451
174450
174450
174451
174453
174456
174459
174455
174453
174451
174450
174449
174449
174450
174451
174453
174455
174454
174452
174450
174449
174449
174449
174449
174450
174452
174454
174454
174452
174450
174449
174449
174449
174449
174450
174452
174454
174455
174453
174451
174450
174449
174449
174450
174451
174453
174455
174459
174456
174453
174451
174450
174450
174451
174453
174456
174459
174462
174459
174456
174453
174452
174452
174453
174456
174459
174462
174464
174462
174459
174455
174454
174454
174455
174459
174462
174464
174466
174465
174464
174463
174462
174462
174463
174464
174465
174466
174465
174462
174460
174459
174459
174459
174459
174460
174462
174465
174464
174460
174458
174457
174456
174456
174457
174458
174460
174464
174463
174459
174457
174455
174455
174455
174455
174457
174459
174463
174462
174459
174456
174455
174454
174454
174455
174456
174459
174462
174462
174459
174456
174455
174454
174454
174455
174456
174459
174462
174463
174459
174457
174455
174455
174455
174455
174457
174459
174463
174464
174460
174458
174457
174456
174456
174457
174458
174460
174464
174465
174462
174460
174459
174459
174459
174459
174460
174462
174465
174466
174465
174464
174463
174462
174462
174463
174464
174465
174466
174452
174451
174451
174450
174450
174450
174450
174451
174451
174452
174451
174449
174448
174448
174447
174447
174448
174448
174449
174451
174451
174448
174447
174446
174445
174445
174446
174447
174448
174451
174450
174448
174446
174445
174444
174444
174445
174446
174448
174450
174450
174447
174445
174444
174444
174444
174444
174445
174447
174450
174450
174447
174445
174444
174444
174444
174444
174445
174447
174450
174450
174448
174446
174445
174444
174444
174445
174446
174448
174450
174451
174448
174447
174446
174445
174445
174446
174447
174448
174451
174451
174449
174448
174448
174447
174447
174448
174448
174449
174451
174452
174451
174451
174450
174450
174450
174450
174451
174451
174452
174428
174427
174427
174427
174426
174426
174427
174427
174427
174428
174427
174426
174425
174425
174425
174425
174425
174425
174426
174427
174427
174425
174424
174424
174423
174423
174424
174424
174425
174427
174427
174425
174424
174423
174422
174422
174423
174424
174425
174427
174426
174425
174423
174422
174422
174422
174422
174423
174425
174426
174426
174425
174423
174422
174422
174422
174422
174423
174425
174426
174427
174425
174424
174423
174422
174422
174423
174424
174425
174427
174427
174425
174424
174424
174423
174423
174424
174424
174425
174427
174427
174426
174425
174425
174425
174425
174425
174425
174426
174427
174428
174427
174427
174427
174426
174426
174427
174427
174427
174428
174398
174397
174397
174397
174397
174397
174397
174397
174397
174398
174397
174396
174396
174396
174396
174396
174396
174396
174396
174397
174397
174396
174395
174395
174395
174395
174395
174395
174396
174397
174397
174396
174395
174395
174394
174394
174395
174395
174396
174397
174397
174396
174395
174394
174394
174394
174394
174395
174396
174397
174397
174396
174395
174394
174394
174394
174394
174395
174396
174397
174397
174396
174395
174395
174394
174394
174395
174395
174396
174397
174397
174396
174395
174395
174395
174395
174395
174395
174396
174397
174397
174396
174396
174396
174396
174396
174396
174396
174396
174397
174398
174397
174397
174397
174397
174397
174397
174397
174397
174398
174364
174364
174364
174364
174364
174364
174364
174364
174364
174364
174364
174364
174363
174363
174363
174363
174363
174363
174364
174364
174364
174363
174363
174363
174363
174363
174363
174363
174363
174364
174364
174363
174363
174363
174363
174363
174363
174363
174363
174364
174364
174363
174363
174363
174362
174362
174363
174363
174363
174364
174364
174363
174363
174363
174362
174362
174363
174363
174363
174364
174364
174363
174363
174363
174363
174363
174363
174363
174363
174364
174364
174363
174363
174363
174363
174363
174363
174363
174363
174364
174364
174364
174363
174363
174363
174363
174363
174363
174364
174364
174364
174364
174364
174364
174364
174364
174364
174364
174364
174364
174330
174329
174329
174329
174329
174329
174329
174329
174329
174330
174329
174329
174329
174329
174329
174329
174329
174329
174329
174329
174329
174329
174329
174329
174329
174329
174329
174329
174329
174329
174329
174329
174329
174329
174329
174329
174329
174329
174329
174329
174329
174329
174329
174329
174328
174328
174329
174329
174329
174329
174329
174329
174329
174329
174328
174328
174329
174329
174329
174329
174329
174329
174329
174329
174329
174329
174329
174329
174329
174329
174329
174329
174329
174329
174329
174329
174329
174329
174329
174329
174329
174329
174329
174329
174329
174329
174329
174329
174329
174329
174330
174329
174329
174329
174329
174329
174329
174329
174329
174330
174294
174294
174294
174294
174294
174294
174294
174294
174294
174294
174294
174294
174294
174294
174294
174294
174294
174294
174294
174294
174294
174294
174294
174293
174293
174293
174293
174294
174294
174294
174294
174294
174293
174293
174293
174293
174293
174293
174294
174294
174294
174294
174293
174293
174293
174293
174293
174293
174294
174294
174294
174294
174293
174293
174293
174293
174293
174293
174294
174294
174294
174294
174293
174293
174293
174293
174293
174293
174294
174294
174294
174294
174294
174293
174293
174293
174293
174294
174294
174294
174294
174294
174294
174294
174294
174294
174294
174294
174294
174294
174294
174294
174294
174294
174294
174294
174294
174294
174294
174294
174258
174258
174258
174257
174257
174257
174257
174258
174258
174258
174258
174257
174257
174257
174257
174257
174257
174257
174257
174258
174258
174257
174257
174257
174257
174257
174257
174257
174257
174258
174257
174257
174257
174257
174257
174257
174257
174257
174257
174257
174257
174257
174257
174257
174257
174257
174257
174257
174257
174257
174257
174257
174257
174257
174257
174257
174257
174257
174257
174257
174257
174257
174257
174257
174257
174257
174257
174257
174257
174257
174258
174257
174257
174257
174257
174257
174257
174257
174257
174258
174258
174257
174257
174257
174257
174257
174257
174257
174257
174258
174258
174258
174258
174257
174257
174257
174257
174258
174258
174258
174221
174221
174221
174221
174221
174221
174221
174221
174221
174221
174221
174221
174221
174221
174221
174221
174221
174221
174221
174221
174221
174221
174221
174221
174221
174221
174221
174221
174221
174221
174221
174221
174221
174221
174221
174221
174221
174221
174221
174221
174221
174221
174221
174221
174221
174221
174221
174221
174221
174221
174221
174221
174221
174221
174221
174221
174221
174221
174221
174221
174221
174221
174221
174221
174221
174221
174221
174221
174221
174221
174221
174221
174221
174221
174221
174221
174221
174221
174221
174221
174221
174221
174221
174221
174221
174221
174221
174221
174221
174221
174221
174221
174221
174221
174221
174221
174221
174221
174221
174221
174184
174184
174184
174184
174184
174184
174184
174184
174184
174184
174184
174184
174184
174184
174184
174184
174184
174184
174184
174184
174184
174184
174184
174184
174184
174184
174184
174184
174184
174184
174184
174184
174184
174184
174184
174184
174184
174184
174184
174184
174184
174184
174184
174184
174184
174184
174184
174184
174184
174184
174184
174184
174184
174184
174184
174184
174184
174184
174184
174184
174184
174184
174184
174184
174184
174184
174184
174184
174184
174184
174184
174184
174184
174184
174184
174184
174184
174184
174184
174184
174184
174184
174184
174184
174184
174184
174184
174184
174184
174184
174184
174184
174184
174184
174184
174184
174184
174184
174184
174184
174147
174147
174147
174147
174147
174147
174147
174147
174147
174147
174147
174147
174147
174147
174147
174147
174147
174147
174147
174147
174147
174147
174147
174147
174147
174147
174147
174147
174147
174147
174147
174147
174147
174147
174147
174147
174147
174147
174147
174147
174147
174147
174147
174147
174147
174147
174147
174147
174147
174147
174147
174147
174147
174147
174147
174147
174147
174147
174147
174147
174147
174147
174147
174147
174147
174147
174147
174147
174147
174147
174147
174147
174147
174147
174147
174147
174147
174147
174147
174147
174147
174147
174147
174147
174147
174147
174147
174147
174147
174147
174147
174147
174147
174147
174147
174147
174147
174147
174147
174147
174109
174109
174109
174109
174109
174109
174109
174109
174109
174109
174109
174109
174109
174109
174109
174109
174109
174109
174109
174109
174109
174109
174109
174109
174109
174109
174109
174109
174109
174109
174109
174109
174109
174109
174109
174109
174109
174109
174109
174109
174109
174109
174109
174109
174109
174109
174109
174109
174109
174109
174109
174109
174109
174109
174109
174109
174109
174109
174109
174109
174109
174109
174109
174109
174109
174109
174109
174109
174109
174109
174109
174109
174109
174109
174109
174109
174109
174109
174109
174109
174109
174109
174109
174109
174109
174109
174109
174109
174109
174109
174109
174109
174109
174109
174109
174109
174109
174109
174109
174109
174071
174071
174071
174071
174071
174071
174071
174071
174071
174071
174071
174071
174071
174071
174071
174071
174071
174071
174071
174071
174071
174071
174071
174071
174071
174071
174071
174071
174071
174071
174071
174071
174071
174071
174071
174071
174071
174071
174071
174071
174071
174071
174071
174071
174071
174071
174071
174071
174071
174071
174071
174071
174071
174071
174071
174071
174071
174071
174071
174071
174071
174071
174071
174071
174071
174071
174071
174071
174071
174071
174071
174071
174071
174071
174071
174071
174071
174071
174071
174071
174071
174071
174071
174071
174071
174071
174071
174071
174071
174071
174071
174071
174071
174071
174071
174071
174071
174071
174071
174071
174034
174034
174034
174034
174034
174034
174034
174034
174034
174034
174034
174034
174034
174034
174034
174034
174034
174034
174034
174034
174034
174034
174034
174034
174034
174034
174034
174034
174034
174034
174034
174034
174034
174034
174034
174034
174034
174034
174034
174034
174034
174034
174034
174034
174034
174034
174034
174034
174034
174034
174034
174034
174034
174034
174034
174034
174034
174034
174034
174034
174034
174034
174034
174034
174034
174034
174034
174034
174034
174034
174034
174034
174034
174034
174034
174034
174034
174034
174034
174034
174034
174034
174034
174034
174034
174034
174034
174034
174034
174034
174034
174034
174034
174034
174034
174034
174034
174034
174034
174034
173996
173996
173996
173996
173996
173996
173996
173996
173996
173996
173996
173996
173996
173996
173996
173996
173996
173996
173996
173996
173996
173996
173996
173996
173996
173996
173996
173996
173996
173996
173996
173996
173996
173996
173996
173996
173996
173996
173996
173996
173996
173996
173996
173996
173996
173996
173996
173996
173996
173996
173996
173996
173996
173996
173996
173996
173996
173996
173996
173996
173996
173996
173996
173996
173996
173996
173996
173996
173996
173996
173996
173996
173996
173996
173996
173996
173996
173996
173996
173996
173996
173996
173996
173996
173996
173996
173996
173996
173996
173996
173996
173996
173996
173996
173996
173996
173996
173996
173996
173996
173957
173957
173957
173957
173957
173957
173957
173957
173957
173957
173957
173957
173957
173957
173957
173957
173957
173957
173957
173957
173957
173957
173957
173957
173957
173957
173957
173957
173957
173957
173957
173957
173957
173957
173957
173957
173957
173957
173957
173957
173957
173957
173957
173957
173957
173957
173957
173957
173957
173957
173957
173957
173957
173957
173957
173957
173957
173957
173957
173957
173957
173957
173957
173957
173957
173957
173957
173957
173957
173957
173957
173957
173957
173957
173957
173957
173957
173957
173957
173957
173957
173957
173957
173957
173957
173957
173957
173957
173957
173957
173957
173957
173957
173957
173957
173957
173957
173957
173957
173957
173919
173919
173919
173919
173919
173919
173919
173919
173919
173919
173919
173919
173919
173919
173919
173919
173919
173919
173919
173919
173919
173919
173919
173919
173919
173919
173919
173919
173919
173919
173919
173919
173919
173919
173919
173919
173919
173919
173919
173919
173919
173919
173919
173919
173919
173919
173919
173919
173919
173919
173919
173919
173919
173919
173919
173919
173919
173919
173919
173919
173919
173919
173919
173919
173919
173919
173919
173919
173919
173919
173919
173919
173919
173919
173919
173919
173919
173919
173919
173919
173919
173919
173919
173919
173919
173919
173919
173919
173919
173919