/*--------------------------------*- C++ -*----------------------------------*\
  =========                 |
  \\      /  F ield         | OpenFOAM: The Open Source CFD Toolbox
   \\    /   O peration     | Website:  https://openfoam.org
    \\  /    A nd           | Version:  9
     \\/     M anipulation  |
\*---------------------------------------------------------------------------*/
FoamFile
{
    format      ascii;
    class       volScalarField;
    location    "79";
    object      CO.gas;
}
// * * * * * * * * * * * * * * * * * * * * * * * * * * * * * * * * * * * * * //

dimensions      [0 0 0 0 0 0 0];

internalField   nonuniform List<scalar> 
137980
(
0.292582
0.291574
0.291153
0.293815
0.297025
0.298423
0.299017
0.299357
0.299483
0.299056
0.291568
0.290825
0.290213
0.291686
0.295541
0.297394
0.29792
0.298041
0.297819
0.297549
0.290873
0.290045
0.289743
0.290345
0.292602
0.296196
0.297483
0.297636
0.29713
0.296509
0.289831
0.289312
0.289125
0.289334
0.290277
0.292385
0.295426
0.29668
0.296774
0.295775
0.289171
0.288993
0.288896
0.288873
0.289187
0.290023
0.291448
0.293246
0.294561
0.294707
0.28902
0.288923
0.288862
0.288732
0.288763
0.289103
0.289844
0.290732
0.2915
0.292083
0.289024
0.289102
0.289126
0.288923
0.288698
0.288793
0.289233
0.289912
0.290526
0.291091
0.289356
0.289623
0.289789
0.289547
0.288946
0.288884
0.289103
0.289715
0.290266
0.290856
0.289942
0.290202
0.290192
0.289933
0.289362
0.28926
0.289385
0.289884
0.290293
0.29111
0.290616
0.290593
0.290464
0.290072
0.289679
0.289619
0.28973
0.290082
0.290428
0.291359
0.29236
0.29157
0.291876
0.294721
0.297361
0.298563
0.29948
0.300801
0.301745
0.301399
0.29125
0.290776
0.290732
0.292848
0.296247
0.297716
0.298371
0.298934
0.299151
0.298946
0.290741
0.290268
0.290352
0.291572
0.294313
0.297023
0.29784
0.297995
0.297764
0.297698
0.289885
0.289668
0.289717
0.290203
0.291697
0.294442
0.29673
0.297271
0.297253
0.296307
0.289423
0.289312
0.289302
0.289538
0.290179
0.291484
0.293536
0.295524
0.29615
0.295763
0.289194
0.289126
0.289092
0.289142
0.289427
0.290054
0.291063
0.292297
0.293396
0.294044
0.289124
0.289112
0.289129
0.289024
0.289066
0.289378
0.289956
0.290686
0.291307
0.292024
0.289256
0.289311
0.289397
0.289268
0.289034
0.289144
0.289534
0.29007
0.29056
0.291124
0.289579
0.289633
0.289612
0.289467
0.289238
0.289275
0.289514
0.289995
0.290355
0.290917
0.28998
0.289877
0.289732
0.289527
0.289405
0.289464
0.289707
0.290076
0.290409
0.291095
0.292004
0.291751
0.292356
0.295016
0.297484
0.298893
0.300636
0.301515
0.303205
0.305822
0.29103
0.290883
0.29165
0.293814
0.296769
0.298433
0.299928
0.301704
0.303149
0.304549
0.290624
0.290462
0.290918
0.292811
0.295508
0.297901
0.298973
0.300571
0.30142
0.301625
0.289954
0.289944
0.290176
0.291135
0.293394
0.296346
0.297914
0.29856
0.298779
0.298417
0.289561
0.289519
0.289639
0.290154
0.29126
0.29324
0.295857
0.297233
0.297629
0.297212
0.289291
0.289257
0.289306
0.289546
0.29014
0.291238
0.292745
0.294403
0.295488
0.295869
0.289186
0.289155
0.289182
0.289225
0.2895
0.290113
0.291049
0.292029
0.292918
0.293713
0.289237
0.289229
0.289271
0.289254
0.289222
0.289538
0.290114
0.290744
0.291276
0.291898
0.289336
0.289314
0.289308
0.289281
0.289251
0.289381
0.289771
0.290243
0.290564
0.291028
0.289533
0.289405
0.28933
0.289284
0.2893
0.289443
0.289756
0.290128
0.290446
0.290973
0.291899
0.292012
0.292901
0.295104
0.297358
0.2991
0.300544
0.300221
0.301705
0.305686
0.291043
0.291568
0.292992
0.294936
0.297542
0.29954
0.301036
0.301686
0.302551
0.305584
0.290652
0.290899
0.29211
0.294159
0.296711
0.29919
0.300715
0.301991
0.30331
0.30524
0.290153
0.290429
0.291119
0.292634
0.295124
0.298137
0.300203
0.301434
0.302813
0.30425
0.289773
0.289894
0.290351
0.291346
0.293103
0.295949
0.299013
0.300459
0.301603
0.302797
0.289466
0.289518
0.289792
0.29042
0.291493
0.29321
0.295919
0.298637
0.299959
0.300536
0.289343
0.289303
0.289415
0.289774
0.290507
0.29152
0.293037
0.294964
0.296664
0.297846
0.289277
0.289262
0.289326
0.289429
0.28981
0.290499
0.291387
0.292423
0.293323
0.2943
0.289321
0.289284
0.289291
0.289326
0.289456
0.289858
0.290496
0.291069
0.291418
0.291877
0.289448
0.289313
0.28927
0.289271
0.289348
0.289601
0.290093
0.290491
0.29072
0.290893
0.292121
0.292351
0.293501
0.295204
0.297031
0.298856
0.300264
0.300207
0.301528
0.304592
0.291437
0.292957
0.294112
0.295596
0.297607
0.299685
0.301098
0.301531
0.302071
0.304778
0.290878
0.291911
0.293458
0.295393
0.297842
0.300328
0.301669
0.302358
0.303039
0.305076
0.290612
0.291372
0.292505
0.294503
0.29735
0.300473
0.302149
0.303038
0.304059
0.305251
0.290159
0.290741
0.291693
0.293275
0.295997
0.299633
0.302133
0.303304
0.304443
0.305231
0.289867
0.290186
0.29094
0.292107
0.294159
0.297548
0.301426
0.303143
0.304382
0.305019
0.289558
0.289747
0.290229
0.291112
0.292417
0.294789
0.299352
0.302253
0.303734
0.304265
0.289425
0.289412
0.289682
0.290235
0.291151
0.292628
0.295475
0.299694
0.30154
0.30232
0.289425
0.289352
0.2894
0.2897
0.290291
0.291253
0.29274
0.294588
0.295682
0.296522
0.289524
0.289368
0.289325
0.289401
0.289732
0.290435
0.291521
0.292123
0.291824
0.291143
0.292976
0.293091
0.293682
0.29508
0.296566
0.298364
0.300202
0.300464
0.299997
0.300829
0.292347
0.293681
0.294535
0.295639
0.297438
0.29948
0.301042
0.301324
0.300656
0.3012
0.291361
0.292392
0.293887
0.295542
0.29781
0.300395
0.301714
0.302094
0.301666
0.301965
0.290978
0.291718
0.292898
0.294873
0.29772
0.300942
0.302333
0.302786
0.302784
0.302621
0.290483
0.291067
0.292117
0.293842
0.29691
0.300972
0.302689
0.30331
0.303569
0.303352
0.290194
0.290506
0.291386
0.292882
0.295755
0.300738
0.303069
0.303849
0.304137
0.304049
0.290013
0.290038
0.290695
0.292041
0.294692
0.300237
0.303103
0.304096
0.304386
0.304305
0.290018
0.289809
0.290087
0.291178
0.29347
0.29887
0.302731
0.303974
0.304308
0.304246
0.290176
0.289809
0.289776
0.290452
0.292102
0.295939
0.301321
0.303078
0.303617
0.304284
0.290072
0.289761
0.289653
0.289962
0.291046
0.293718
0.298495
0.300213
0.299274
0.296522
0.294373
0.293855
0.293989
0.294879
0.295748
0.297585
0.299882
0.299284
0.298588
0.300392
0.292666
0.293883
0.294639
0.295586
0.29699
0.299486
0.300546
0.299462
0.298824
0.300384
0.291803
0.292712
0.294135
0.295769
0.298133
0.300425
0.301002
0.299851
0.299179
0.300355
0.291456
0.292117
0.293384
0.295562
0.298851
0.301005
0.301443
0.300232
0.299434
0.300354
0.291165
0.291616
0.292928
0.295284
0.29944
0.301416
0.301823
0.300805
0.29986
0.300386
0.291061
0.291214
0.292491
0.295356
0.299988
0.301765
0.302163
0.301158
0.300147
0.300486
0.291224
0.291002
0.292106
0.295772
0.300479
0.302124
0.302493
0.301722
0.300753
0.300789
0.29159
0.291118
0.291646
0.295642
0.300557
0.302276
0.302614
0.301946
0.301138
0.301065
0.291764
0.291288
0.291376
0.295199
0.300325
0.302189
0.302601
0.302342
0.301796
0.30171
0.29148
0.291004
0.291298
0.294505
0.299769
0.301814
0.302395
0.302356
0.301986
0.300953
0.296345
0.294572
0.294536
0.295091
0.295677
0.297051
0.297518
0.297959
0.300527
0.303403
0.293216
0.29421
0.295112
0.296041
0.297433
0.298208
0.298307
0.298617
0.301407
0.304813
0.29286
0.293763
0.295628
0.297402
0.298555
0.298904
0.298866
0.299194
0.302439
0.305752
0.292769
0.293593
0.295905
0.298309
0.29926
0.299452
0.299214
0.299766
0.303436
0.306292
0.292907
0.293517
0.296212
0.298838
0.299747
0.299874
0.299524
0.300226
0.303743
0.306218
0.293294
0.293538
0.296551
0.299335
0.300193
0.300273
0.299829
0.300425
0.303626
0.305924
0.29418
0.293655
0.296706
0.299631
0.300435
0.300465
0.300018
0.300466
0.303272
0.3054
0.29539
0.29388
0.296786
0.299948
0.300745
0.30078
0.300423
0.300538
0.302573
0.304441
0.295692
0.294363
0.29679
0.300059
0.300888
0.300987
0.300652
0.300638
0.302014
0.303663
0.295119
0.294731
0.297196
0.300362
0.301186
0.301335
0.301118
0.300962
0.301596
0.302723
0.296881
0.295532
0.295607
0.296083
0.296732
0.29726
0.298138
0.300874
0.302951
0.304198
0.294804
0.295176
0.29599
0.296593
0.297354
0.298315
0.298981
0.301989
0.304772
0.30591
0.295248
0.295665
0.296625
0.297708
0.298457
0.298887
0.300134
0.304006
0.305748
0.306449
0.295591
0.296323
0.297758
0.298716
0.299076
0.299542
0.301843
0.30532
0.30658
0.307277
0.296086
0.296995
0.298677
0.299308
0.299523
0.300415
0.303338
0.306108
0.307111
0.307735
0.296447
0.297695
0.299257
0.299731
0.299932
0.301166
0.304275
0.306549
0.307408
0.307952
0.296816
0.298214
0.299506
0.299894
0.300283
0.3017
0.304798
0.30668
0.307589
0.308068
0.297362
0.298479
0.299724
0.30014
0.300587
0.302
0.304774
0.306606
0.307559
0.30807
0.298087
0.29854
0.299775
0.300252
0.300773
0.302025
0.304609
0.30639
0.307399
0.308031
0.298189
0.298589
0.299882
0.30048
0.300946
0.301942
0.304077
0.305749
0.306882
0.307818
0.299491
0.297558
0.298518
0.298823
0.298907
0.299291
0.301137
0.302082
0.303132
0.303383
0.297656
0.297257
0.298375
0.298783
0.298954
0.299803
0.301861
0.303551
0.305095
0.305749
0.29726
0.297556
0.29856
0.298869
0.299259
0.30084
0.303602
0.305371
0.306074
0.30637
0.297422
0.298181
0.298955
0.299156
0.299987
0.302545
0.30507
0.306076
0.306528
0.306776
0.297823
0.298756
0.299201
0.299624
0.300995
0.304068
0.305882
0.306575
0.306959
0.307143
0.298302
0.299246
0.299607
0.300196
0.302082
0.305076
0.30636
0.306917
0.307227
0.307305
0.298873
0.299521
0.29979
0.300678
0.302848
0.305603
0.306687
0.307205
0.307446
0.307463
0.29929
0.299658
0.300145
0.301149
0.303414
0.305944
0.30689
0.307355
0.307562
0.307526
0.299531
0.299745
0.300259
0.301338
0.303503
0.305934
0.30696
0.307566
0.307699
0.307657
0.299732
0.299879
0.300495
0.301548
0.303456
0.305744
0.306827
0.307562
0.307771
0.30765
0.306169
0.303821
0.302705
0.302125
0.301011
0.300917
0.301263
0.299771
0.299414
0.299282
0.30499
0.302435
0.30215
0.301714
0.300807
0.300829
0.300637
0.299888
0.300242
0.301965
0.302454
0.301811
0.301938
0.300925
0.300644
0.300786
0.300671
0.300661
0.303398
0.305524
0.301931
0.301791
0.301427
0.300627
0.30067
0.300887
0.301084
0.302939
0.305599
0.306393
0.301918
0.301688
0.300817
0.300574
0.300776
0.301157
0.3021
0.304994
0.3062
0.306558
0.301925
0.301311
0.300681
0.300623
0.300991
0.301733
0.303648
0.305787
0.30647
0.306722
0.301847
0.301019
0.300703
0.300725
0.301313
0.302429
0.304549
0.306118
0.306626
0.306827
0.301581
0.300942
0.300762
0.300937
0.301642
0.302935
0.305164
0.306339
0.306749
0.306894
0.301477
0.300962
0.300855
0.301034
0.301871
0.303326
0.305348
0.3064
0.306802
0.307032
0.301672
0.30093
0.300925
0.301231
0.302081
0.303251
0.305148
0.30625
0.306927
0.307017
0.305769
0.304611
0.304193
0.303535
0.303304
0.303849
0.304823
0.30529
0.304983
0.301008
0.305277
0.304366
0.304017
0.3035
0.303455
0.304008
0.304621
0.305055
0.304939
0.301775
0.303849
0.30395
0.30355
0.303439
0.303607
0.303995
0.304522
0.304993
0.304788
0.301545
0.302701
0.303204
0.303325
0.303372
0.303608
0.304004
0.304451
0.30481
0.304042
0.300944
0.302299
0.302359
0.302782
0.303169
0.303499
0.303907
0.304166
0.303978
0.302199
0.300811
0.302467
0.301558
0.301817
0.302478
0.302979
0.30329
0.303031
0.302276
0.30131
0.300874
0.303732
0.301827
0.301141
0.301455
0.30197
0.302084
0.301677
0.301327
0.30101
0.301032
0.305337
0.302482
0.3012
0.300834
0.300895
0.301027
0.300932
0.300915
0.300915
0.30141
0.305608
0.302816
0.301376
0.30072
0.300295
0.300139
0.300177
0.300579
0.300861
0.301785
0.307116
0.303523
0.30162
0.300725
0.300182
0.299874
0.299682
0.299846
0.300591
0.30335
0.304257
0.303764
0.303585
0.303448
0.30341
0.304513
0.306275
0.306585
0.306672
0.306674
0.304206
0.304098
0.303832
0.303518
0.30318
0.302703
0.302657
0.304675
0.305554
0.306062
0.304479
0.304563
0.30431
0.304032
0.303782
0.303424
0.302047
0.301472
0.301953
0.303675
0.305148
0.30533
0.305136
0.304534
0.304044
0.303773
0.303346
0.301833
0.301612
0.303143
0.306393
0.306277
0.306059
0.305423
0.304777
0.304047
0.303722
0.303064
0.302373
0.303774
0.307254
0.306865
0.306449
0.305727
0.305187
0.304584
0.304121
0.303858
0.303088
0.303677
0.307535
0.307178
0.306626
0.305827
0.305297
0.304797
0.304449
0.30432
0.303889
0.303234
0.307495
0.307229
0.306675
0.305862
0.305455
0.304945
0.304619
0.304587
0.304373
0.303249
0.30695
0.30679
0.306485
0.305856
0.305469
0.304684
0.304471
0.304554
0.304593
0.303291
0.306624
0.3066
0.306368
0.305847
0.304938
0.303601
0.303607
0.304186
0.304515
0.303564
0.306409
0.306662
0.306812
0.306935
0.306936
0.306921
0.306865
0.306867
0.306897
0.307027
0.307205
0.307509
0.307563
0.307522
0.307334
0.307076
0.306813
0.306823
0.306889
0.307101
0.307785
0.307914
0.307905
0.307757
0.30745
0.307177
0.306937
0.306867
0.306914
0.307087
0.308188
0.308175
0.308072
0.307815
0.307483
0.307182
0.306966
0.306842
0.306862
0.306988
0.308362
0.308241
0.30805
0.307657
0.307351
0.307008
0.306726
0.306617
0.306654
0.306855
0.308427
0.308068
0.307678
0.307139
0.306793
0.306587
0.306243
0.306209
0.306292
0.306651
0.308185
0.307396
0.307018
0.306656
0.30647
0.306129
0.306012
0.306032
0.306152
0.306677
0.30707
0.30686
0.306704
0.306369
0.306042
0.30595
0.305972
0.305993
0.306094
0.306682
0.306621
0.306696
0.30647
0.305895
0.305836
0.305903
0.306153
0.306122
0.306233
0.306324
0.306538
0.306661
0.30601
0.305652
0.305739
0.306004
0.306734
0.306392
0.305914
0.303542
0.307489
0.307319
0.307005
0.306942
0.306954
0.306956
0.30692
0.306885
0.306867
0.309522
0.307537
0.307332
0.306976
0.306844
0.306843
0.306831
0.306825
0.306866
0.307228
0.309364
0.307461
0.307139
0.306723
0.306584
0.30659
0.306636
0.306744
0.307016
0.307974
0.310252
0.307297
0.306935
0.306512
0.306422
0.306441
0.306578
0.30694
0.307974
0.309607
0.310524
0.307088
0.306621
0.306195
0.306157
0.30627
0.306691
0.307902
0.309096
0.309756
0.309559
0.306937
0.30632
0.305971
0.306004
0.306216
0.30721
0.308371
0.308502
0.30762
0.308441
0.306752
0.306011
0.305719
0.305817
0.30619
0.307293
0.306838
0.305692
0.306677
0.308093
0.306669
0.305838
0.305586
0.305723
0.305924
0.305509
0.304487
0.304525
0.304991
0.306666
0.306644
0.305755
0.305393
0.305516
0.305151
0.303876
0.303133
0.302876
0.302807
0.303192
0.306656
0.305701
0.305261
0.305417
0.304944
0.303618
0.302812
0.302402
0.302138
0.301934
0.307402
0.307456
0.307456
0.307416
0.307369
0.307261
0.3069
0.307758
0.308716
0.307885
0.307453
0.307467
0.30746
0.307295
0.307173
0.306876
0.30671
0.308214
0.308526
0.308307
0.307434
0.307469
0.307411
0.307041
0.306846
0.306498
0.306636
0.308458
0.30886
0.308382
0.307426
0.307477
0.307296
0.30664
0.306358
0.306304
0.306868
0.30932
0.309818
0.308804
0.307425
0.307477
0.307009
0.305996
0.305831
0.306226
0.308362
0.311005
0.311147
0.309692
0.307426
0.307442
0.306467
0.305341
0.305629
0.306914
0.310472
0.31163
0.311358
0.310394
0.307426
0.307376
0.30576
0.30504
0.305627
0.308354
0.310879
0.311276
0.311053
0.310709
0.307424
0.30729
0.305445
0.304981
0.305947
0.308885
0.310542
0.31093
0.311049
0.311145
0.307425
0.30725
0.305376
0.305062
0.306364
0.309359
0.310617
0.311024
0.311213
0.311535
0.307458
0.307265
0.305394
0.305381
0.307328
0.309654
0.310325
0.31064
0.310845
0.310932
0.309573
0.308101
0.306784
0.306598
0.306639
0.306662
0.306681
0.306715
0.309166
0.311147
0.309754
0.308234
0.306865
0.306568
0.306561
0.306614
0.306668
0.306839
0.307457
0.309916
0.309668
0.308129
0.306743
0.306483
0.306519
0.306603
0.306667
0.306847
0.307234
0.30834
0.309535
0.30755
0.306529
0.30642
0.306504
0.306619
0.306725
0.307027
0.307353
0.30806
0.309105
0.306914
0.306358
0.306389
0.306549
0.306674
0.30685
0.307226
0.307643
0.308532
0.307831
0.306347
0.306253
0.306391
0.306696
0.306836
0.30708
0.307391
0.307871
0.309663
0.306454
0.306109
0.306218
0.306659
0.306904
0.307081
0.307272
0.307509
0.308485
0.311532
0.305951
0.306033
0.306347
0.307018
0.30721
0.307332
0.307381
0.307522
0.308311
0.311273
0.305787
0.306034
0.306792
0.307411
0.307552
0.307603
0.307588
0.307591
0.307853
0.309765
0.30571
0.306292
0.307266
0.307743
0.307808
0.307802
0.307733
0.307719
0.307792
0.308124
0.31262
0.311745
0.309047
0.308494
0.308348
0.308461
0.308909
0.308961
0.30881
0.308905
0.314039
0.312455
0.310011
0.308693
0.308339
0.308306
0.308786
0.309349
0.309394
0.309402
0.314196
0.31285
0.310482
0.308746
0.308206
0.308109
0.308105
0.309178
0.309599
0.309871
0.314221
0.313033
0.310586
0.308474
0.307611
0.307778
0.307804
0.30804
0.309491
0.309774
0.314236
0.31292
0.30969
0.307585
0.306825
0.306858
0.307341
0.307749
0.309012
0.30957
0.314065
0.311363
0.307844
0.30668
0.306497
0.306525
0.306638
0.307114
0.308412
0.309583
0.312468
0.30825
0.306611
0.306271
0.306317
0.30639
0.306467
0.306686
0.30769
0.309754
0.307887
0.306381
0.306021
0.306095
0.306265
0.306369
0.306409
0.306499
0.307094
0.309451
0.305768
0.305676
0.305846
0.306092
0.306529
0.306539
0.306488
0.306495
0.30661
0.307794
0.305199
0.3055
0.306035
0.306691
0.307248
0.307197
0.306924
0.306646
0.306677
0.307186
0.310249
0.310174
0.310562
0.311044
0.311482
0.311976
0.313373
0.315498
0.317687
0.320016
0.310226
0.310487
0.311482
0.312747
0.314554
0.316974
0.318872
0.320164
0.320832
0.321232
0.310636
0.311729
0.313912
0.316867
0.318773
0.319643
0.320035
0.320136
0.319843
0.317945
0.312455
0.314791
0.317339
0.318976
0.319587
0.319774
0.319797
0.318984
0.316057
0.314284
0.313462
0.316464
0.318535
0.319271
0.319515
0.319531
0.318673
0.316491
0.31491
0.314416
0.313058
0.316189
0.318463
0.319099
0.319209
0.318937
0.317783
0.315737
0.31477
0.314581
0.312058
0.314672
0.317804
0.31875
0.318945
0.318841
0.317896
0.315921
0.314819
0.314581
0.311297
0.312054
0.314619
0.317672
0.3185
0.318645
0.318258
0.316961
0.315078
0.314704
0.311286
0.311333
0.311867
0.313838
0.316708
0.317863
0.318077
0.317761
0.316142
0.314721
0.311366
0.311005
0.311046
0.311491
0.312472
0.314138
0.314716
0.316572
0.316344
0.31497
0.315885
0.316033
0.316546
0.315855
0.310028
0.303003
0.29957
0.292659
0.289012
0.281817
0.316736
0.316436
0.316828
0.316381
0.311396
0.303332
0.297923
0.282362
0.272791
0.271406
0.318466
0.317116
0.317207
0.316858
0.313578
0.304003
0.294653
0.281857
0.281104
0.292679
0.320666
0.318733
0.318008
0.317886
0.315614
0.304815
0.295544
0.283303
0.291436
0.301049
0.321253
0.320379
0.319414
0.319122
0.317005
0.305788
0.299119
0.289295
0.300046
0.308867
0.320184
0.320959
0.320415
0.320032
0.317873
0.307097
0.301659
0.298856
0.304216
0.310508
0.32039
0.321105
0.320893
0.320387
0.318048
0.308705
0.302299
0.304665
0.306351
0.31009
0.319416
0.320942
0.320856
0.320133
0.31756
0.309557
0.30286
0.304924
0.307591
0.308578
0.302455
0.306326
0.307209
0.312882
0.31317
0.308747
0.30315
0.302764
0.304996
0.305225
0.281093
0.296943
0.303718
0.307211
0.302691
0.301542
0.300379
0.300634
0.30201
0.304175
0.152163
0.148171
0.127464
0.110099
0.102804
0.099262
0.0998758
0.10218
0.104188
0.102896
0.152983
0.157356
0.150411
0.133907
0.119779
0.10561
0.0947533
0.0952447
0.0881685
0.0842666
0.149157
0.157755
0.157092
0.149522
0.134265
0.113702
0.0917149
0.088446
0.0841521
0.0825727
0.124475
0.150189
0.154077
0.149723
0.135171
0.116034
0.0935814
0.0886341
0.0841618
0.0822112
0.104097
0.116176
0.136584
0.144412
0.137569
0.122414
0.10413
0.0904722
0.0844732
0.0843748
0.0991998
0.0987404
0.107575
0.122359
0.133831
0.126531
0.118313
0.0985476
0.0867498
0.085411
0.0972411
0.0952167
0.101412
0.111617
0.112337
0.111642
0.109156
0.102031
0.0896076
0.0872641
0.0949981
0.092319
0.0868229
0.083078
0.0821192
0.0830088
0.0895779
0.097387
0.0900611
0.0875783
0.0876562
0.0836166
0.0790553
0.0777179
0.0799794
0.0809874
0.0889917
0.0970873
0.106343
0.0995153
0.0767872
0.0744023
0.0727535
0.0731905
0.0786816
0.0837462
0.0859629
0.119641
0.153602
0.0948553
0.0302951
0.029682
0.0272937
0.0263324
0.0262367
0.0274
0.0307212
0.032129
0.0331199
0.0340504
0.030478
0.0291465
0.0275459
0.0263018
0.0257722
0.0257011
0.0283087
0.0306866
0.0323995
0.0324347
0.0299654
0.0296229
0.0287911
0.0283038
0.026428
0.0238978
0.023432
0.0248101
0.026584
0.027108
0.0297654
0.0297097
0.0294442
0.0289738
0.0285568
0.0279941
0.0224038
0.0213107
0.0220676
0.0224116
0.0306629
0.0302449
0.029963
0.0294858
0.028989
0.0287782
0.0272651
0.0232495
0.0214281
0.0212144
0.0335725
0.0326861
0.0316637
0.0308752
0.0299926
0.0294229
0.0289605
0.0279651
0.0255496
0.0260669
0.03794
0.0366431
0.0352679
0.0338992
0.0324223
0.030856
0.029884
0.029384
0.0293742
0.0296911
0.0349505
0.036159
0.035923
0.035344
0.0345777
0.0332771
0.0318924
0.0316761
0.03114
0.0303713
0.0333854
0.0357849
0.0358979
0.0355807
0.0349759
0.0336157
0.0324072
0.0310958
0.0255208
0.0259251
0.0311489
0.0352077
0.0355662
0.0352589
0.0345738
0.0332497
0.0318041
0.0272874
0.0248805
0.0246266
0.0281305
0.0292674
0.0316019
0.0321821
0.0323024
0.0312903
0.0234563
0.0116107
0.00579627
0.00585926
0.0273607
0.0271931
0.0287692
0.0290095
0.0278605
0.020467
0.0117788
0.00610853
0.00380072
0.00638937
0.0272321
0.0229572
0.0207869
0.0187683
0.0153179
0.0118711
0.0089009
0.00494475
0.00331705
0.00710306
0.0258548
0.0260145
0.0230415
0.0196994
0.0169597
0.0142773
0.0103942
0.00556769
0.00324368
0.00454569
0.0222252
0.0217084
0.0229232
0.023096
0.0229163
0.0229164
0.0201066
0.0117691
0.00491489
0.00338353
0.0301044
0.029743
0.027927
0.0262405
0.0261529
0.0267829
0.0265049
0.0232891
0.0131098
0.00484034
0.0259121
0.027966
0.0286701
0.028538
0.0286209
0.0292059
0.0292115
0.0275164
0.0191016
0.00792344
0.0182192
0.0200291
0.0250848
0.0274956
0.028636
0.0294669
0.0292798
0.027523
0.0173341
0.00615993
0.0200748
0.020405
0.0240476
0.0268906
0.0286798
0.0292866
0.0287445
0.0236007
0.00729086
0.0036282
0.0201643
0.0246533
0.0248269
0.027423
0.0286902
0.0286326
0.0220772
0.00618353
0.00430013
0.00478234
0.00465045
0.0058721
0.00729426
0.00355004
0.00404627
0.00560046
0.00596181
0.00514487
0.00259784
0.00154379
0.00501019
0.00432728
0.00227157
0.00149111
0.00239341
0.00462276
0.00522622
0.00420399
0.00138183
0.000528099
0.00284139
0.00135018
0.000509267
0.000374896
0.000543642
0.0013326
0.00208376
0.00216232
0.00106783
0.000359871
0.000680054
0.000321295
0.000131796
8.86135e-05
8.49945e-05
0.0001176
0.000209834
0.000299326
0.000323304
0.000329249
0.000522515
0.000169999
7.20765e-05
4.50791e-05
3.84779e-05
3.7311e-05
4.16723e-05
5.87305e-05
0.000100796
0.000166032
0.00142289
0.000215555
5.81375e-05
3.47251e-05
2.8379e-05
2.5018e-05
2.09137e-05
1.89889e-05
2.26432e-05
4.67538e-05
0.00714231
0.000508183
6.15282e-05
3.27984e-05
2.91744e-05
2.7108e-05
2.16081e-05
1.49588e-05
1.45281e-05
2.21187e-05
0.00561303
0.000447325
6.24378e-05
3.36912e-05
3.09049e-05
2.9921e-05
2.66325e-05
2.49411e-05
2.96356e-05
3.75939e-05
0.00285445
0.000354333
6.92609e-05
3.67332e-05
3.46821e-05
3.80011e-05
3.7616e-05
3.85645e-05
6.22111e-05
0.000104982
0.00140383
0.000249707
7.72056e-05
4.39652e-05
4.16705e-05
4.45265e-05
5.48084e-05
6.67418e-05
0.000105416
0.000131851
0.275188
0.288412
0.293394
0.294288
0.293571
0.291833
0.288371
0.283997
0.279041
0.277058
0.266275
0.279232
0.28953
0.293748
0.294995
0.294702
0.293456
0.28976
0.281527
0.277161
0.262741
0.270903
0.279963
0.288691
0.293268
0.294645
0.294486
0.293414
0.289406
0.280453
0.262266
0.266465
0.274234
0.280897
0.287862
0.292613
0.294138
0.293978
0.292849
0.288983
0.262275
0.266454
0.270997
0.277607
0.282714
0.287918
0.292128
0.29363
0.29341
0.291972
0.26306
0.268158
0.272499
0.277758
0.283008
0.286626
0.290037
0.292704
0.293406
0.292902
0.264835
0.271219
0.277753
0.282728
0.286543
0.28848
0.290493
0.292437
0.293643
0.293414
0.265659
0.275461
0.283048
0.288259
0.291171
0.292421
0.292617
0.292959
0.293781
0.293935
0.265957
0.277496
0.283876
0.287618
0.290473
0.292128
0.292781
0.293141
0.293762
0.293968
0.264414
0.277051
0.282832
0.285253
0.286983
0.288915
0.290668
0.291959
0.292501
0.293337
0.26568
0.279233
0.287171
0.291049
0.292067
0.291523
0.289953
0.287704
0.283592
0.279224
0.259613
0.270005
0.282587
0.289817
0.293099
0.294125
0.29384
0.29271
0.289142
0.281366
0.257206
0.262779
0.272224
0.282171
0.289594
0.293135
0.294132
0.293997
0.292942
0.289726
0.256812
0.259356
0.264829
0.273222
0.280834
0.288217
0.292455
0.293672
0.293529
0.292663
0.256762
0.259445
0.262082
0.267503
0.27503
0.280652
0.28688
0.29162
0.293032
0.292853
0.257168
0.260456
0.263226
0.267262
0.273018
0.279106
0.283437
0.287956
0.291568
0.292495
0.258411
0.262501
0.267213
0.27178
0.276022
0.280637
0.284267
0.287246
0.290172
0.292263
0.259348
0.265417
0.273066
0.279626
0.28425
0.286834
0.288423
0.289084
0.290358
0.291813
0.259546
0.266247
0.275731
0.282542
0.286793
0.289406
0.290615
0.291009
0.291345
0.292125
0.258109
0.264592
0.275818
0.282076
0.285179
0.287133
0.288797
0.290228
0.290783
0.291998
0.260903
0.272454
0.280523
0.285401
0.288706
0.29023
0.289815
0.288879
0.286996
0.283077
0.256874
0.265711
0.277505
0.285315
0.290397
0.292952
0.29353
0.293244
0.292092
0.288831
0.254815
0.258836
0.268051
0.278886
0.286924
0.291522
0.293435
0.293887
0.293693
0.292926
0.254022
0.255799
0.259456
0.267879
0.276977
0.284009
0.289914
0.292778
0.293422
0.293244
0.253924
0.255558
0.257219
0.260582
0.268033
0.275892
0.281402
0.287404
0.291584
0.292614
0.254317
0.256568
0.258334
0.260641
0.265557
0.272707
0.278866
0.28294
0.287377
0.290971
0.255346
0.258395
0.261518
0.26483
0.269012
0.274626
0.279947
0.283666
0.286341
0.289057
0.256438
0.260401
0.265916
0.27227
0.277904
0.282402
0.285655
0.287707
0.288506
0.289703
0.25704
0.260846
0.267116
0.275035
0.281491
0.285811
0.288331
0.289516
0.289823
0.290397
0.255619
0.258856
0.265412
0.275184
0.281816
0.285194
0.286807
0.28796
0.288252
0.288933
0.258827
0.267274
0.274114
0.279787
0.284148
0.287899
0.289289
0.289239
0.288628
0.285826
0.255804
0.264441
0.273302
0.281059
0.287169
0.291075
0.292893
0.293158
0.292903
0.29221
0.254006
0.258399
0.268102
0.277492
0.284699
0.289595
0.292427
0.29353
0.29366
0.293509
0.25295
0.25489
0.259167
0.268038
0.276161
0.282187
0.287305
0.291138
0.292834
0.293128
0.25257
0.253672
0.255427
0.259321
0.266944
0.274486
0.279436
0.283677
0.288544
0.291492
0.252734
0.254106
0.255285
0.257192
0.261577
0.269028
0.276008
0.280672
0.283875
0.28766
0.25357
0.255816
0.257971
0.260948
0.264992
0.270803
0.27698
0.281942
0.284545
0.286731
0.254905
0.258082
0.26142
0.266692
0.272618
0.278053
0.282733
0.286085
0.287639
0.288648
0.255754
0.258467
0.261754
0.267937
0.275137
0.281154
0.284928
0.287447
0.288325
0.288826
0.255158
0.256478
0.259443
0.266223
0.275076
0.281542
0.284548
0.285902
0.286113
0.286381
0.256889
0.263649
0.269284
0.273449
0.279842
0.285672
0.28871
0.289652
0.289572
0.288453
0.255416
0.262845
0.270523
0.276965
0.283816
0.289059
0.291884
0.292949
0.293016
0.293041
0.254108
0.259392
0.268375
0.275883
0.282523
0.287776
0.290995
0.292736
0.293419
0.29344
0.252992
0.255243
0.260504
0.269256
0.276639
0.281447
0.284425
0.287769
0.290967
0.292444
0.252403
0.253572
0.255623
0.260083
0.267655
0.274731
0.279216
0.281959
0.285058
0.288556
0.252208
0.253199
0.254407
0.256661
0.26157
0.269025
0.275769
0.280334
0.282894
0.285353
0.252449
0.253989
0.256127
0.258461
0.262503
0.268805
0.275504
0.280927
0.28398
0.285794
0.253623
0.25674
0.259166
0.262531
0.267774
0.273414
0.278713
0.283285
0.28583
0.28693
0.255032
0.257199
0.259202
0.262788
0.268936
0.275754
0.281337
0.284887
0.286441
0.287022
0.255063
0.255556
0.256882
0.260287
0.267639
0.275429
0.281445
0.28425
0.285136
0.285331
0.255391
0.260535
0.264961
0.267798
0.274178
0.283047
0.287906
0.28965
0.290389
0.290204
0.255095
0.261593
0.268609
0.27412
0.279979
0.286316
0.290256
0.292302
0.292956
0.293131
0.254503
0.260543
0.268121
0.274406
0.279962
0.285415
0.289207
0.291593
0.292807
0.293168
0.253384
0.256667
0.264186
0.271758
0.277073
0.279747
0.282121
0.285824
0.289387
0.29109
0.252571
0.254014
0.25691
0.262881
0.270077
0.275647
0.278822
0.280248
0.282454
0.285755
0.252239
0.253219
0.2546
0.257189
0.262489
0.269734
0.276151
0.280223
0.28222
0.283456
0.25219
0.253432
0.255494
0.257409
0.260247
0.266048
0.273446
0.279483
0.283073
0.284869
0.252805
0.255548
0.25782
0.260021
0.263544
0.268778
0.275074
0.280532
0.283671
0.285271
0.25446
0.256429
0.25757
0.259638
0.264082
0.270335
0.276665
0.281339
0.283819
0.285025
0.254893
0.255158
0.255908
0.257894
0.262823
0.27004
0.27676
0.281217
0.283185
0.284265
0.254056
0.257637
0.26046
0.262859
0.268101
0.279331
0.286401
0.28936
0.290603
0.290931
0.254802
0.260372
0.265982
0.270843
0.276019
0.282829
0.288353
0.291351
0.292635
0.292978
0.255071
0.260925
0.267755
0.273339
0.277438
0.282345
0.287255
0.290424
0.292163
0.292678
0.254467
0.259497
0.26673
0.272484
0.276364
0.278435
0.281511
0.285589
0.288898
0.290206
0.253215
0.255795
0.261708
0.268239
0.272866
0.275951
0.277477
0.279171
0.281668
0.284468
0.25253
0.253756
0.255828
0.259338
0.265368
0.271809
0.276573
0.279588
0.280488
0.28175
0.252261
0.253544
0.255605
0.25744
0.259885
0.2646
0.271018
0.277373
0.281426
0.283214
0.252648
0.254603
0.256407
0.258177
0.260546
0.265228
0.271252
0.277268
0.28171
0.283953
0.253765
0.255567
0.256466
0.257828
0.26084
0.266403
0.273026
0.278337
0.282
0.283934
0.254412
0.254736
0.255355
0.256798
0.259968
0.265682
0.272178
0.277335
0.280397
0.283076
0.253206
0.25522
0.256853
0.259064
0.262935
0.272363
0.282955
0.288239
0.290329
0.290966
0.254154
0.258263
0.262678
0.26706
0.271811
0.278366
0.285518
0.28981
0.291839
0.292514
0.255224
0.260761
0.266968
0.271316
0.275087
0.27975
0.285096
0.289336
0.291586
0.292199
0.255644
0.261669
0.267798
0.272185
0.275025
0.278082
0.281718
0.285975
0.289015
0.289764
0.254936
0.260289
0.26633
0.270769
0.273666
0.275571
0.277169
0.279256
0.281794
0.284035
0.25358
0.256284
0.26062
0.265205
0.269464
0.273221
0.276122
0.277769
0.278968
0.280542
0.25268
0.254279
0.256425
0.25812
0.260442
0.26494
0.270528
0.275469
0.279528
0.281177
0.252801
0.254594
0.255697
0.256707
0.258319
0.261597
0.267356
0.273753
0.279129
0.282142
0.253417
0.25459
0.255593
0.25686
0.259197
0.263928
0.269659
0.275545
0.27978
0.282484
0.253779
0.254202
0.254958
0.256396
0.258969
0.26382
0.269559
0.275065
0.278777
0.282123
0.252729
0.253785
0.254756
0.256179
0.258749
0.265286
0.277844
0.285298
0.289125
0.290354
0.253462
0.25584
0.259209
0.263053
0.267573
0.273739
0.280292
0.286191
0.289946
0.291305
0.254983
0.260042
0.264785
0.26876
0.273434
0.278453
0.283614
0.287875
0.290699
0.291535
0.256915
0.262716
0.267762
0.271242
0.274343
0.277993