/*--------------------------------*- C++ -*----------------------------------*\
  =========                 |
  \\      /  F ield         | OpenFOAM: The Open Source CFD Toolbox
   \\    /   O peration     | Website:  https://openfoam.org
    \\  /    A nd           | Version:  9
     \\/     M anipulation  |
\*---------------------------------------------------------------------------*/
FoamFile
{
    format      ascii;
    class       volScalarField;
    location    "79";
    object      f11.gas;
}
// * * * * * * * * * * * * * * * * * * * * * * * * * * * * * * * * * * * * * //

dimensions      [0 0 0 0 0 0 0];

internalField   nonuniform List<scalar> 
137980
(
0.0160309
0.0164901
0.0175841
0.0188925
0.0201035
0.0208158
0.0209949
0.0210455
0.0213571
0.0217583
0.0154638
0.0159469
0.0169495
0.0183363
0.0199695
0.0210489
0.0213354
0.0213643
0.0215714
0.0219548
0.0152641
0.0155912
0.0162972
0.0174409
0.0189083
0.0206977
0.0215692
0.0217132
0.0216907
0.0215693
0.0149486
0.0151604
0.015638
0.016518
0.017647
0.0189922
0.0205478
0.0213596
0.0214753
0.0210444
0.0146781
0.0147915
0.0150964
0.0156726
0.0164991
0.0174892
0.0185619
0.0195939
0.0201886
0.0200097
0.0144524
0.0144811
0.0146696
0.0149933
0.0155744
0.0162548
0.0170118
0.017724
0.0182396
0.0183117
0.0143219
0.0142722
0.0143442
0.0145547
0.0148464
0.0153344
0.0158469
0.0163552
0.0167761
0.0169895
0.0142956
0.0141809
0.0141775
0.0142878
0.014473
0.0146908
0.0150449
0.0154401
0.0157805
0.0160188
0.0143912
0.014212
0.0141521
0.0141775
0.0143069
0.0144875
0.0146718
0.0149066
0.0151603
0.0154078
0.0146813
0.0144253
0.0143115
0.0142854
0.0143222
0.0144379
0.0146506
0.0148721
0.0150706
0.0153226
0.015573
0.0162889
0.0173898
0.0186512
0.0199463
0.0207366
0.0210221
0.0212466
0.0219035
0.0226726
0.0151919
0.0158604
0.0168877
0.018379
0.0200495
0.0210403
0.0213395
0.0214429
0.0219218
0.0225753
0.0149737
0.0154889
0.0163484
0.017607
0.0193263
0.0210715
0.0216977
0.0218446
0.0220153
0.0224329
0.014635
0.0149962
0.0156696
0.0166807
0.0180525
0.0198512
0.0213742
0.0218513
0.0219702
0.0219015
0.0143868
0.0145824
0.0150322
0.0157825
0.0168101
0.0181224
0.0197177
0.0210322
0.0213789
0.0211869
0.0141825
0.0142747
0.0144926
0.0150281
0.0157352
0.016654
0.0177246
0.0188228
0.0195597
0.0195655
0.0140578
0.0140518
0.0141461
0.0144106
0.0149089
0.0155142
0.0162346
0.0169721
0.0175819
0.0178528
0.0140477
0.0139329
0.0139751
0.0140524
0.0143199
0.0147363
0.0151876
0.0156839
0.0161331
0.0164495
0.0141594
0.0139583
0.0139217
0.0139759
0.0140331
0.0142555
0.014585
0.0149333
0.0152277
0.0155154
0.0144591
0.0141736
0.0140396
0.0140352
0.0140843
0.0141648
0.0143284
0.0145938
0.0148209
0.0151567
0.0155191
0.016247
0.0173105
0.0185847
0.0198909
0.0207807
0.0213804
0.0219899
0.0231171
0.0249408
0.0153014
0.0159398
0.0169726
0.0185314
0.0201778
0.0212551
0.0217824
0.0226475
0.0238804
0.0253482
0.0149558
0.0155753
0.0165645
0.0180457
0.0199648
0.0215217
0.0221907
0.0227772
0.0240113
0.0253058
0.0146202
0.0150647
0.0158905
0.0171796
0.0189961
0.0210507
0.0223277
0.0229454
0.0238397
0.0246429
0.014252
0.0145768
0.0151959
0.0162147
0.0176717
0.0196159
0.0216856
0.0226965
0.02329
0.0235201
0.0140073
0.0141213
0.0145754
0.0152999
0.0163763
0.0178446
0.0196229
0.0213832
0.0220897
0.0222221
0.0138565
0.0138204
0.0140646
0.0145478
0.0152908
0.0162922
0.0175511
0.0188656
0.0198539
0.0202593
0.0137555
0.0136593
0.0137067
0.0140378
0.0144865
0.0151425
0.0159409
0.0168036
0.0175562
0.0180839
0.0137309
0.013607
0.0135845
0.0136935
0.0140308
0.0144158
0.0149182
0.0154521
0.0158833
0.0162655
0.0139154
0.0136916
0.0136468
0.0136852
0.0137961
0.0140639
0.01442
0.0147818
0.0150567
0.0153527
0.0157999
0.016379
0.0172475
0.0183907
0.0195511
0.020509
0.0212379
0.0214979
0.0232963
0.0238624
0.0156792
0.0161621
0.017139
0.0185395
0.0201255
0.0213608
0.0222046
0.0229825
0.0242048
0.0252148
0.0150976
0.0158116
0.0169739
0.0186168
0.0205113
0.0221579
0.0230416
0.0239699
0.0252368
0.0260879
0.0148232
0.0153321
0.0164534
0.0181623
0.0203615
0.0224983
0.0238225
0.0246852
0.0259365
0.0266329
0.0143378
0.0147678
0.0157314
0.0172974
0.0195278
0.0220624
0.024031
0.0251622
0.0261602
0.0270145
0.0139391
0.0142432
0.0149621
0.0161648
0.0181311
0.0207752
0.0234447
0.0250485
0.0261275
0.0269478
0.013667
0.0138174
0.0142822
0.0151752
0.0165778
0.0186285
0.0213932
0.0239153
0.0253791
0.0262285
0.0134912
0.0134784
0.0137814
0.0143665
0.0153521
0.0167737
0.0185322
0.0206332
0.0225348
0.0238165
0.0134578
0.0133555
0.01346
0.0138342
0.0144871
0.0154543
0.016621
0.0177638
0.0186391
0.0195202
0.0137099
0.0134383
0.0133976
0.0135964
0.01398
0.0146146
0.0155045
0.0162474
0.0166845
0.0166266
0.0161384
0.0167066
0.0171657
0.0179811
0.0188316
0.0197789
0.0207143
0.0218791
0.024249
0.0236647
0.0157287
0.0162383
0.0171128
0.0183226
0.0197024
0.0208847
0.0218555
0.0229972
0.0250312
0.0253381
0.0151133
0.0159446
0.0172143
0.0187765
0.0205416
0.0219813
0.0229262
0.0240177
0.0258592
0.0268255
0.0149186
0.0156629
0.017065
0.0189396
0.0210166
0.0228251
0.0239926
0.0250542
0.0268206
0.0278651
0.0144181
0.0152001
0.0166163
0.0186425
0.0211183
0.0233618
0.0248457
0.0259183
0.0275255
0.0283552
0.0139866
0.0145628
0.0158419
0.0179321
0.0206395
0.0233317
0.0253518
0.0266135
0.0278219
0.0286915
0.0136819
0.0139866
0.0149247
0.0167767
0.0195742
0.0226963
0.0251988
0.0268959
0.0283244
0.0296536
0.0135162
0.0135645
0.0141989
0.0155365
0.0178898
0.0210698
0.0242956
0.0264171
0.028071
0.0294427
0.0135586
0.0134144
0.0136763
0.0146265
0.0163463
0.0187573
0.0217378
0.0243727
0.0261883
0.0274201
0.0139269
0.0135625
0.0135392
0.0139976
0.0151839
0.0172199
0.0197238
0.021561
0.0213033
0.0202561
0.0167308
0.0172989
0.0173138
0.0175953
0.0182551
0.0193765
0.0209804
0.0232188
0.0236209
0.0238071
0.0158058
0.0163815
0.01715
0.0181982
0.0195242
0.020911
0.0222454
0.0241938
0.0261462
0.0263531
0.0151318
0.0161288
0.0174388
0.0190224
0.0207437
0.0222507
0.0235142
0.0252384
0.027818
0.028471
0.0149503
0.0159569
0.0175316
0.0195155
0.0216703
0.0235014
0.0248621
0.0265382
0.0292212
0.0304947
0.0145858
0.0156649
0.0173656
0.0196848
0.0222842
0.0244913
0.0260866
0.0277631
0.0306305
0.0321959
0.01429
0.0151663
0.0168928
0.0195294
0.0225568
0.0251639
0.0270723
0.0289471
0.0315721
0.0328172
0.0141657
0.0145692
0.016216
0.018983
0.0224366
0.0256212
0.0278644
0.0298883
0.0323797
0.0335318
0.0145218
0.0142319
0.0154138
0.0181483
0.0218818
0.0257194
0.0286925
0.0313687
0.0339839
0.0358322
0.0153907
0.0144999
0.0147354
0.0170143
0.0206841
0.0251104
0.0284113
0.0312588
0.0339585
0.0369082
0.0158273
0.0148435
0.0145953
0.0159282
0.0190889
0.0235328
0.0270717
0.0298128
0.0312302
0.0304865
0.0174979
0.0175554
0.0175281
0.0177487
0.0184612
0.0201837
0.0248808
0.0263253
0.0237358
0.0277431
0.015997
0.0167109
0.0175201
0.018745
0.0204464
0.023097
0.0275609
0.0285977
0.0259755
0.0287258
0.015475
0.0167616
0.018324
0.0202589
0.0225458
0.0256018
0.0292014
0.0304839
0.0283963
0.0300448
0.0154257
0.0169394
0.0190379
0.0215481
0.0243011
0.027549
0.0306445
0.0320563
0.0307507
0.0313924
0.0154435
0.0170599
0.0195565
0.0225821
0.025727
0.0290772
0.0318602
0.0333401
0.0330262
0.0329973
0.0156132
0.0170245
0.0198109
0.023406
0.0271322
0.0303075
0.0327889
0.0345425
0.0349308
0.0343734
0.0160614
0.0168313
0.0198885
0.024351
0.0284388
0.0315914
0.0339422
0.0360545
0.0368401
0.0362655
0.0172493
0.0167361
0.0196402
0.0250183
0.0294308
0.0327014
0.0354437
0.0373825
0.0380797
0.0376591
0.0182723
0.017488
0.0192743
0.0251207
0.0307306
0.0343188
0.0370169
0.0393612
0.0405284
0.0408858
0.0189753
0.0180801
0.0192514
0.0246154
0.0307339
0.0353773
0.0391961
0.0420938
0.0435486
0.0429472
0.0181362
0.0179773
0.0180943
0.0188188
0.0200113
0.0248026
0.0250164
0.024196
0.0311955
0.0439592
0.0168483
0.0179656
0.0196811
0.0223419
0.0257208
0.0278124
0.0275275
0.0272986
0.0359985
0.0436279
0.0172762
0.0196768
0.0228697
0.0262151
0.0287277
0.0297333
0.0297021
0.0303996
0.039654
0.042915
0.0179178
0.0214446
0.0254016
0.0286615
0.0306097
0.0314834
0.0318561
0.0337199
0.0404929
0.0411722
0.0187351
0.0228411
0.0271759
0.0303953
0.0321656
0.0331187
0.0337291
0.0357522
0.0406285
0.040962
0.0197118
0.0237094
0.0283775
0.0317815
0.0334596
0.034513
0.035269
0.0370285
0.0410267
0.0408435
0.0205532
0.0240549
0.0291339
0.0326619
0.0344175
0.0357015
0.0363879
0.0376235
0.0410124
0.0407336
0.0212271
0.0238775
0.0294361
0.0333284
0.0352986
0.0367148
0.0374648
0.038213
0.0409307
0.040457
0.022496
0.0240534
0.0294338
0.0335376
0.0357731
0.0374388
0.0382738
0.03869
0.0407359
0.0404589
0.0250444
0.0249638
0.0295971
0.0341035
0.0366521
0.0383276
0.039302
0.0397477
0.0412695
0.0409612
0.0189432
0.0190948
0.0195449
0.0198024
0.0211289
0.0241621
0.025381
0.0327058
0.0469185
0.0449641
0.0194447
0.0209504
0.0222069
0.0232718
0.0259016
0.0275791
0.02975
0.0412671
0.045187
0.0381642
0.021918
0.0241418
0.0258734
0.0271984
0.0293309
0.0312785
0.036696
0.0418414
0.0409591
0.0309043
0.0239333
0.0267726
0.0285999
0.0300431
0.0322619
0.0351345
0.0399314
0.0410605
0.034607
0.0269464
0.0258932
0.0287377
0.0305739
0.0322058
0.0346665
0.0381897
0.0401444
0.039249
0.0307849
0.0249711
0.0273801
0.0302956
0.0322011
0.0340483
0.0368192
0.0394448
0.0400411
0.0374932
0.0285615
0.0241274
0.0285133
0.0312989
0.0332077
0.0353052
0.0381781
0.0398089
0.0398023
0.036231
0.0280174
0.0242737
0.0293542
0.0319767
0.034218
0.036488
0.0390463
0.0400614
0.0394888
0.0357503
0.0282538
0.0246711
0.0295467
0.0321206
0.0345433
0.0369315
0.0393277
0.0401023
0.0394879
0.0359312
0.028903
0.0254698
0.0300868
0.0325787
0.0350909
0.0375855
0.0396249
0.0402517
0.0396496
0.0367903
0.0306012
0.0265389
0.0212733
0.0214869
0.0210059
0.0218682
0.0249503
0.0283241
0.0389826
0.0457736
0.0433428
0.0413706
0.0216873
0.0228548
0.0234424
0.0257426
0.0295121
0.0355083
0.0433743
0.044537
0.040209
0.0375939
0.023775
0.0255302
0.0268686
0.0298084
0.034689
0.0412536
0.0431181
0.0412819
0.0341984
0.0315545
0.0263227
0.0280198
0.0300872
0.0338406
0.039651
0.0421305
0.0418647
0.0357118
0.0301376
0.0276658
0.0284455
0.0301996
0.0329612
0.0373773
0.0414011
0.0417909
0.0394557
0.0315954
0.0274195
0.0251594
0.0302889
0.0321398
0.0352947
0.0396578
0.0414919
0.0410972
0.0361327
0.028942
0.0257978
0.0235404
0.0313237
0.033455
0.0369062
0.0404978
0.0413448
0.0399276
0.0339748
0.0275377
0.0247916
0.0227318
0.032411
0.0346476
0.038075
0.040705
0.0410159
0.0388573
0.0323075
0.0267048
0.0242298
0.0221277
0.0327489
0.034888
0.0382406
0.040616
0.0407398
0.0384185
0.0322295
0.0266669
0.0239161
0.0221145
0.0332752
0.0355005
0.0386313
0.0405912
0.0406014
0.0386547
0.0330737
0.0271149
0.0240466
0.0221032
0.0219684
0.0224266
0.0225108
0.024426
0.028481
0.0326772
0.041216
0.0424266
0.0409563
0.0406624
0.0222975
0.0232744
0.0242281
0.0273663
0.0319875
0.0375967
0.0424452
0.0425555
0.0410257
0.0405251
0.0236117
0.0251351
0.0268616
0.0305684
0.0359
0.0412341
0.0429216
0.0421456
0.0401954
0.0390464
0.0260857
0.0274902
0.0297683
0.03403
0.039944
0.0425273
0.0427685
0.0409579
0.0382733
0.035561
0.0284012
0.0296894
0.0326651
0.0377069
0.0418376
0.0427496
0.0422606
0.0394184
0.0358788
0.0329198
0.0304559
0.032012
0.0354555
0.0403582
0.0424678
0.042619
0.0409853
0.0369406
0.0334625
0.0302733
0.031797
0.0336822
0.0375934
0.0415538
0.0425383
0.0422735
0.0398653
0.0356806
0.0324926
0.0294182
0.0328461
0.0351592
0.0391674
0.0420294
0.0424969
0.0417595
0.0386523
0.0345684
0.0314373
0.0279505
0.033518
0.0355298
0.0395827
0.0421
0.0424361
0.0415323
0.0384188
0.0344883
0.0311889
0.0276083
0.0341269
0.0363743
0.0401563
0.0421805
0.0424036
0.0415747
0.0390421
0.0348938
0.0307117
0.0266342
0.0243644
0.0248706
0.0257108
0.0277608
0.0295707
0.0327192
0.0351771
0.0340995
0.0340524
0.0343809
0.0251341
0.0259909
0.027433
0.0299243
0.0320051
0.0344792
0.0357854
0.0346198
0.0342529
0.0345966
0.0276448
0.0281862
0.0297115
0.0321622
0.0342692
0.0356043
0.0359682
0.0345892
0.0342425
0.0351061
0.0313635
0.0310961
0.0322888
0.0343476
0.0357934
0.0361982
0.0358671
0.0345522
0.0344255
0.0358497
0.0347011
0.034325
0.0349574
0.036265
0.0368095
0.0365544
0.0358197
0.0347954
0.0350416
0.037221
0.0363927
0.0369173
0.0374903
0.0379121
0.0378593
0.0370833
0.0361788
0.0355613
0.0366286
0.0396356
0.0371716
0.0381855
0.0392977
0.0396223
0.0390607
0.0381557
0.037227
0.037425
0.0385657
0.0408613
0.0380108
0.0389043
0.0403356
0.040921
0.0406166
0.0397417
0.0391896
0.0392349
0.0405526
0.0414282
0.0382451
0.0391263
0.0407057
0.0416536
0.0417419
0.0415653
0.041332
0.0416522
0.0419047
0.0421709
0.0384843
0.039554
0.0409828
0.0419597
0.0423583
0.0425358
0.0428421
0.0426542
0.0434241
0.0411374
0.0368147
0.0383432
0.0387975
0.0391917
0.0391414
0.0392906
0.038194
0.036872
0.0364667
0.0357254
0.0372141
0.0377983
0.0383994
0.0391221
0.0393187
0.0397283
0.0394714
0.0386178
0.0377239
0.0368958
0.0377537
0.0378827
0.0383343
0.0387999
0.0393552
0.0401047
0.0402375
0.0398359
0.0388505
0.0379843
0.038209
0.0381733
0.0384196
0.0385888
0.0390785
0.0399311
0.0406749
0.0407738
0.0403626
0.03961
0.0380997
0.0379585
0.0380564
0.0383387
0.0387983
0.0394282
0.0404393
0.0416053
0.0416633
0.0417486
0.0365877
0.0367723
0.0373866
0.0379442
0.0383828
0.0389044
0.039858
0.0415113
0.0426677
0.0435287
0.0352266
0.0359894
0.0370968
0.037674
0.0381919
0.0386405
0.0393485
0.0408898
0.043429
0.0446233
0.0344272
0.0355645
0.0367516
0.0374783
0.0381267
0.0386373
0.0391265
0.0402934
0.0433817
0.0453273
0.0342181
0.0355492
0.0367501
0.0377024
0.0385509
0.0393641
0.039492
0.0402009
0.042928
0.0463089
0.0344856
0.0360572
0.0373035
0.0384101
0.0400547
0.0404131
0.0399938
0.0398448
0.0434243
0.0448012
0.0342837
0.0347756
0.0346822
0.0347634
0.0351629
0.0360972
0.0370994
0.0375153
0.0375352
0.0376683
0.0329998
0.032981
0.0331445
0.0336146
0.0342378
0.03507
0.0357945
0.0366147
0.0371454
0.038002
0.0320681
0.0320535
0.0324927
0.0331888
0.0338761
0.0345908
0.0352351
0.035947
0.0366081
0.03798
0.0310505
0.0314948
0.0323174
0.0331223
0.0337959
0.0344443
0.0347989
0.0354155
0.0361637
0.0376935
0.0305552
0.0314434
0.0324864
0.0333497
0.0341923
0.0345038
0.0346108
0.0348724
0.0356006
0.0374955
0.0304738
0.0318961
0.0330742
0.034283
0.0349717
0.0349436
0.0345903
0.0346159
0.0352245
0.0378024
0.0313054
0.0329782
0.0343406
0.0355032
0.0355413
0.0352714
0.03443
0.0343163
0.0349081
0.0379275
0.033024
0.034232
0.0357658
0.0363568
0.0361508
0.0353891
0.0340548
0.0338801
0.0345314
0.0377089
0.0335612
0.0347847
0.0364698
0.036952
0.0365693
0.0353225
0.0338099
0.0333835
0.0347667
0.0388842
0.0331293
0.0355144
0.0374205
0.0376673
0.0368775
0.0350896
0.0339462
0.0343391
0.0368806
0.0381631
0.0359268
0.0354115
0.0348967
0.0345143
0.0341529
0.0336641
0.0333792
0.0327941
0.0324453
0.0313585
0.0359867
0.0353845
0.0347685
0.0343106
0.0337321
0.0332542
0.0328528
0.032485
0.0316675
0.0316948
0.0357929
0.0350517
0.0344529
0.0339492
0.0333182
0.0327485
0.032353
0.0319662
0.0312074
0.0306
0.0355092
0.0348859
0.0342975
0.0336879
0.0331005
0.0325711
0.0321727
0.0317125
0.0308453
0.0299546
0.0351057
0.0346125
0.0340797
0.0335761
0.0330732
0.0325659
0.0321384
0.0314645
0.029654
0.0273544
0.0346729
0.0343921
0.0339201
0.0335544
0.0331869
0.0326783
0.0319256
0.0296475
0.0263096
0.0241159
0.0343816
0.034178
0.0337357
0.0335587
0.033221
0.0324861
0.0303011
0.0268862
0.0242537
0.0226948
0.0340941
0.0339647
0.0333933
0.0333621
0.0331377
0.0314861
0.0284142
0.0256056
0.0235022
0.0222337
0.0336965
0.0336631
0.0329082
0.0330407
0.032783
0.0304618
0.0274677
0.0252176
0.0239357
0.0231822
0.0333736
0.03329
0.0320877
0.0323976
0.032028
0.0298352
0.0278513
0.0261979
0.024914
0.0236784
0.0359666
0.0347576
0.0333103
0.0319161
0.0305968
0.0295695
0.0273977
0.0271104
0.0294295
0.0288512
0.0360444
0.0348319
0.0332201
0.031552
0.0300088
0.02841
0.0266159
0.0268786
0.028152
0.0278877
0.035105
0.0339198
0.0322661
0.0306138
0.0289944
0.0274786
0.0260806
0.0259288
0.02746
0.0277363
0.0346374
0.0335234
0.0318155
0.030038
0.0283587
0.0268067
0.025613
0.025358
0.0263198
0.0270121
0.0338215
0.0326687
0.0309769
0.0292176
0.0275415
0.0261558
0.0252548
0.0249532
0.0253332
0.0255518
0.0331812
0.0321261
0.0304391
0.0286432
0.0269816
0.0257938
0.0249954
0.0246022
0.0245488
0.02433
0.0325226
0.0312933
0.02965
0.028004
0.026686
0.0256454
0.0247945
0.024246
0.0238527
0.023232
0.031827
0.0305542
0.0289605
0.0277022
0.0266185
0.0256125
0.0247285
0.0240235
0.0233809
0.0226905
0.0311499
0.0295903
0.0281441
0.0273855
0.0266553
0.0258561
0.0249572
0.0241706
0.023367
0.0225842
0.0304428
0.0287225
0.027217
0.026799
0.026608
0.0261985
0.0255359
0.0246193
0.0235808
0.0224286
0.033567
0.0341558
0.0336028
0.0329681
0.0326707
0.0334626
0.0348241
0.0357916
0.0353426
0.0312234
0.0332471
0.0340701
0.0337013
0.032876
0.0317807
0.0323637
0.0333342
0.035147
0.0354226
0.0337019
0.0327138
0.033753
0.0334792
0.0326486
0.031175
0.0312986
0.0321252
0.0339136
0.0348726
0.0342436
0.0325468
0.0336476
0.0333512
0.0322634
0.0305429
0.0302541
0.0310034
0.0326287
0.0340178
0.0338055
0.032463
0.0334321
0.0329571
0.0315632
0.0297732
0.0290526
0.0298609
0.0317528
0.033504
0.0334474
0.0328954
0.033252
0.03238
0.030529
0.0287471
0.0279214
0.0287528
0.0310191
0.0332909
0.0329968
0.0330965
0.0326311
0.0311526
0.0292878
0.0276066
0.0267811
0.0276245
0.0304105
0.0333255
0.0324907
0.0327294
0.0315558
0.029865
0.0280448
0.0263561
0.0255654
0.0262969
0.0291849
0.0330705
0.0335885
0.0317532
0.0300593
0.028611
0.0267254
0.0249121
0.0242405
0.0247487
0.0266382
0.0311177
0.0332675
0.0302455
0.0292323
0.027476
0.0252701
0.0234313
0.0230099
0.0233854
0.0248444
0.0287959
0.0290949
0.0308912
0.0343336
0.0366212
0.0380699
0.0384202
0.0376692
0.0337548
0.0319515
0.0308522
0.0290522
0.0314288
0.0317785
0.0335258
0.0365661
0.0388894
0.039554
0.0377053
0.0319502
0.0298092
0.0283065
0.029583
0.0306354
0.0316773
0.0332956
0.0357834
0.039818
0.040768
0.0365913
0.0307975
0.0286946
0.0287354
0.0296652
0.0309454
0.0321949
0.0336395
0.0361405
0.0410612
0.0417407
0.0338797
0.030006
0.0283037
0.0293459
0.0307578
0.0318872
0.0327733
0.0345183
0.0370277
0.0420859
0.0393872
0.0323217
0.0281024
0.0295011
0.0314671
0.032312
0.0325154
0.0332027
0.0352267
0.0403562
0.0411681
0.035816
0.0283174
0.0304169
0.0320561
0.0325289
0.0324178
0.032561
0.0337502
0.0375
0.0411697
0.0365049
0.0295352
0.0317748
0.0328222
0.0327077
0.0322278
0.0317531
0.0324724
0.0348976
0.0404487
0.0385413
0.0315448
0.0331815
0.0331142
0.0324761
0.0313871
0.0304052
0.0309195
0.0327653
0.0382451
0.0392824
0.0334533
0.0336853
0.0329445
0.0310566
0.0295472
0.0283028
0.028743
0.0301659
0.033304
0.032008
0.0266946
0.02339
0.0220696
0.0222148
0.0227374
0.0237853
0.0256247
0.0263905
0.0267444
0.0278334
0.0260147
0.0236226
0.0237458
0.026386
0.0285418
0.0293712
0.0295402
0.0290586
0.0284995
0.0281384
0.0250428
0.0249169
0.0283752
0.0301816
0.0306816
0.0306784
0.029907
0.0292952
0.0290111
0.028964
0.026201
0.0285131
0.0306357
0.0311669
0.0311864
0.0305773
0.0296287
0.0289306
0.0287324
0.0284769
0.0283253
0.0304576
0.031279
0.031415
0.0311228
0.030241
0.0291631
0.0286043
0.0278071
0.0262734
0.0298514
0.0314026
0.0318053
0.0316069
0.0309251
0.0297493
0.028499
0.027854
0.0268472
0.0258176
0.0303305
0.0317217
0.0324895
0.0321989
0.0311819
0.0299239
0.0285265
0.0274116
0.0261408
0.025897
0.0300633
0.0313496
0.032799
0.0331923
0.0321816
0.0306788
0.0291573
0.0278393
0.0260042
0.0256775
0.0289519
0.0301962
0.0320265
0.0332788
0.0335331
0.032809
0.0313506
0.0298045
0.0264291
0.0270389
0.0281551
0.0290801
0.0305136
0.0322254
0.0333687
0.0338727
0.0338202
0.0331034
0.0285553
0.0268787
0.020947
0.0203754
0.020019
0.0198538
0.0203181
0.0216321
0.0230652
0.024371
0.0254202
0.0253251
0.0211546
0.020571
0.0202716
0.0202758
0.0207846
0.0221459
0.0237298
0.0245964
0.0247746
0.0247688
0.0212268
0.0207847
0.0204489
0.0205464
0.0211001
0.0224018
0.0241755
0.0249354
0.0251772
0.0253714
0.0213429
0.0209935
0.0207504
0.0208177
0.0213705
0.0226296
0.0244021
0.0250822
0.0252742
0.025564
0.0213862
0.021098
0.0209646
0.0210913
0.0215706
0.0226575
0.0244216
0.0250673
0.0251866
0.0254111
0.0213524
0.0211537
0.0210636
0.0212414
0.0216992
0.0225917
0.0242821
0.0249829
0.0249125
0.0252216
0.0212849
0.0211489
0.0211934
0.0214481
0.0218392
0.0225296
0.0238596
0.0248585
0.0247602
0.0257326
0.0213025
0.0211888
0.0213143
0.0216878
0.0221469
0.0226318
0.0233021
0.0243962
0.0244371
0.0255693
0.021148
0.021188
0.0215113
0.0222747
0.0228426
0.0231548
0.0234508
0.0241213
0.0240855
0.0246741
0.0214893
0.0215884
0.0227703
0.0242637
0.0253057
0.0259024
0.0258067
0.0253444
0.0251413
0.0248379
0.0212016
0.021205
0.0205766
0.0195786
0.0190633
0.0188425
0.0188084
0.0188415
0.018726
0.0184287
0.0208286
0.0210966
0.0206239
0.019926
0.0194468
0.0188315
0.0182869
0.0181705
0.0176014
0.0173772
0.0202959
0.0205951
0.020318
0.0196599
0.0192631
0.0188314
0.0178737
0.0177338
0.0174074
0.0173075
0.0189057
0.0194465
0.0196306
0.0192548
0.0187856
0.018654
0.0179118
0.0177266
0.0173864
0.017306
0.0188568
0.018333
0.0186175
0.0186729
0.0185392
0.0185303
0.0182728
0.0177967
0.0174178
0.0174425
0.0188511
0.0180804
0.0179706
0.018002
0.0182532
0.0182484
0.0183105
0.0180785
0.0176155
0.0175812
0.0187245
0.0180574
0.0179014
0.0178564
0.0176239
0.0173813
0.0174119
0.0179367
0.0177361
0.0176623
0.0185286
0.0178452
0.0171366
0.01674
0.0166304
0.016532
0.0168533
0.0176327
0.0175557
0.0175308
0.01745
0.0169694
0.0167994
0.0167621
0.0168218
0.0167366
0.0169854
0.0172541
0.017315
0.0174006
0.0166946
0.0165493
0.0164898
0.0165953
0.016855
0.0170355
0.0170091
0.0173529
0.0175168
0.0173718
0.0116013
0.0116022
0.0116754
0.011701
0.0117094
0.0117413
0.0117569
0.0117173
0.0116268
0.0115901
0.0115879
0.0116258
0.0116562
0.0116588
0.0116786
0.0117507
0.0117812
0.0118054
0.0118572
0.0118763
0.0115334
0.0115635
0.0115853
0.01158
0.0115676
0.0116505
0.0117658
0.0118074
0.0118228
0.0118409
0.0115077
0.0115096
0.0115141
0.0115197
0.0115193
0.0115244
0.0116213
0.0116563
0.0116683
0.0116341
0.0115365
0.0115144
0.0115039
0.0114953
0.011494
0.0114964
0.0115169
0.0115796
0.0116152
0.0115942
0.0116429
0.0116002
0.0115597
0.0115279
0.0115062
0.0114964
0.0114974
0.011506
0.011527
0.0115229
0.0116337
0.0116065
0.0115824
0.011552
0.0115328
0.0115093
0.0114969
0.011497
0.0115042
0.0115001
0.0114614
0.0115429
0.0115639
0.0115498
0.011532
0.0115095
0.0114949
0.0114942
0.011492
0.0114855
0.0113804
0.0115199
0.0115403
0.0115362
0.0115212
0.0115024
0.01149
0.0114753
0.0114564
0.0114864
0.0113394
0.0114612
0.0114864
0.0114891
0.0114822
0.0114676
0.0114585
0.0114502
0.0114486
0.0114735
0.0105838
0.0105415
0.0105538
0.010603
0.0107244
0.0108543
0.0110563
0.0112333
0.0112565
0.0112616
0.0107151
0.0106577
0.0106538
0.0106845
0.0108149
0.0110396
0.0112975
0.0113306
0.0113219
0.0112863
0.0110943
0.0110477
0.0110189
0.011032
0.011198
0.0114146
0.0114192
0.0114003
0.0113986
0.0112728
0.0113804
0.0114095
0.0113863
0.0113744
0.0114321
0.0115033
0.0114896
0.0114645
0.0114394
0.011318
0.0111677
0.0112723
0.0113907
0.0114607
0.0115406
0.0115729
0.0115217
0.0114762
0.0114667
0.0114014
0.0113413
0.0113462
0.011382
0.0114498
0.0115355
0.0116102
0.0116435
0.0115449
0.0114789
0.0114996
0.0116685
0.0116432
0.0115542
0.0115049
0.0115345
0.0116015
0.0116804
0.0117016
0.0116435
0.0116806
0.0116814
0.0116869
0.0116536
0.0115874
0.0115726
0.0116124
0.0117212
0.0117585
0.0117044
0.0117347
0.0116767
0.0117633
0.0117092
0.0116635
0.0116623
0.0116951
0.0117719
0.0116541
0.0117076
0.0116422
0.0114787
0.0116942
0.011704
0.0116862
0.0116996
0.0117319
0.0115984
0.0115969
0.0115145
0.0112604
0.0107546
0.0107293
0.0109902
0.0111184
0.0112665
0.0115016
0.0115959
0.0115623
0.0114535
0.01132
0.0110574
0.0111382
0.011249
0.0112897
0.01145
0.0116243
0.0116612
0.0115468
0.011358
0.0112327
0.0114159
0.0114348
0.0114319
0.011528
0.0116879
0.0117368
0.011724
0.011575
0.0114105
0.0112556
0.0117237
0.011649
0.0116218
0.0116737
0.011788
0.0118099
0.0117851
0.0116859
0.011514
0.0113075
0.0119301
0.011802
0.011759
0.0117578
0.0118171
0.0118251
0.0118097
0.0117433
0.0115694
0.011321
0.0120158
0.0119201
0.0118568
0.011826
0.0118173
0.0118194
0.0117893
0.0117294
0.0116232
0.0114814
0.0121895
0.0120962
0.0119169
0.0118645
0.0118474
0.0118438
0.0118239
0.0118388
0.0118635
0.0117709
0.0123975
0.012113
0.0119337
0.0118627
0.0118431
0.0119037
0.0120325
0.0121073
0.0120761
0.0118516
0.0123443
0.0120318
0.011851
0.0117994
0.01183
0.011993
0.012084
0.012097
0.0119523
0.0117206
0.012115
0.0118069
0.0116934
0.0116856
0.0117699
0.0118926
0.01192
0.0117987
0.0115336
0.0114069
0.0196842
0.0201015
0.020487
0.0206717
0.0207896
0.0208342
0.0208831
0.0209224
0.0210003
0.0211804
0.0196947
0.0200168
0.020321
0.0206072
0.0207695
0.0208391
0.0208754
0.0208948
0.0209409
0.0210403
0.0194401
0.0198788
0.0202714
0.0205534
0.02076
0.0208503
0.0208804
0.0208925
0.0209235
0.0210059
0.0192491
0.0196741
0.0201335
0.0205231
0.0207572
0.020892
0.0209355
0.0209341
0.0209514
0.0210001
0.0191231
0.0195279
0.0199787
0.0204191
0.0207617
0.0209361
0.0210008
0.0210303
0.0210445
0.0210417
0.019189
0.0194918
0.0199655
0.0203723
0.0207456
0.0209859
0.0210998
0.0211223
0.0211337
0.0211232
0.019415
0.0196306
0.0200503
0.0204524
0.0208202
0.021109
0.0212331
0.0212484
0.0212417
0.0212353
0.0197763
0.0199071
0.0202457
0.0206523
0.0210171
0.0212875
0.0214066
0.0214034
0.0213727
0.0213354
0.0201446
0.0202635
0.0206068
0.0209667
0.0212647
0.0214578
0.0215404
0.021523
0.0214671
0.02141
0.0204339
0.0205511
0.0209098
0.0212673
0.0214759
0.0215976
0.0216006
0.0215688
0.0214693
0.021429
0.0191622
0.0195786
0.0199546
0.0201745
0.0203277
0.0204646
0.0205709
0.0207255
0.0208128
0.0210066
0.019202
0.0195399
0.0198169
0.0201358
0.0203512
0.0204817
0.0205718
0.0206556
0.0207388
0.0208719
0.0190143
0.0194749
0.019837
0.020115
0.0203502
0.0205032
0.0205867
0.0206539
0.0207019
0.0207988
0.0188872
0.0193054
0.019767
0.0201384
0.0204068
0.0205602
0.0206645
0.0207101
0.0207441
0.0208212
0.0187857
0.0192011
0.0196497
0.0200863
0.0204546
0.0206957
0.0207851
0.0208233
0.02086
0.0209008
0.018897
0.0191857
0.019677
0.0201181
0.0205003
0.0208011
0.0209599
0.0210152
0.02103
0.0210666
0.0191423
0.0193544
0.0198057
0.0202646
0.0206538
0.0209459
0.0211337
0.0212125
0.0212288
0.0212274
0.0194967
0.0196335
0.0199532
0.0203893
0.0208159
0.0211337
0.0213318
0.0214018
0.0213882
0.0213517
0.0198729
0.0199547
0.0201648
0.0205502
0.0209402
0.0212511
0.0214324
0.0214838
0.0214674
0.0214159
0.0201568
0.0201912
0.0203317
0.0206546
0.0209913
0.0212641
0.0214011
0.0214592
0.0214336
0.0213956
0.0185973
0.0189941
0.0193707
0.0196072
0.019802
0.0200099
0.0202034
0.0204355
0.0206128
0.0207815
0.01865
0.0189891
0.0193008
0.0196466
0.0199002
0.0200688
0.0202244
0.0203694
0.0204852
0.0206593
0.0185954
0.0189949
0.0193301
0.0196394
0.019931
0.0201469
0.0202833
0.0203958
0.0204806
0.0206306
0.01851
0.0189739
0.0193758
0.0197327
0.0200531
0.0202721
0.0203998
0.020504
0.020568
0.0206748
0.0184722
0.0189068
0.0194277
0.0198619
0.0202064
0.0204791
0.0206468
0.0207027
0.0207472
0.0208325
0.0186256
0.0189527
0.019502
0.0200175
0.0204184
0.0207056
0.0209144
0.0210153
0.0210406
0.0210693
0.01888
0.0191536
0.019685
0.0202263
0.0206711
0.0209751
0.0211695
0.0212637
0.0212885
0.0212812
0.0192252
0.0194496
0.0198529
0.0203079
0.020767
0.0211473
0.0213715
0.0214675
0.0214768
0.0214537
0.0196254
0.0197541
0.0199723
0.0203069
0.0207201
0.0211331
0.0213995
0.021504
0.0215064
0.0214847
0.0200488
0.0200424
0.0200663
0.02019
0.0205104
0.02088
0.0211801
0.0213347
0.0213743
0.0213567
0.0179757
0.0184123
0.0187595
0.0190275
0.0192685
0.0195095
0.0197951
0.0200577
0.0204051
0.0205816
0.0180677
0.0184273
0.0187781
0.0191153
0.0194035
0.0196323
0.0198579
0.0200618
0.0202564
0.0204404
0.018086
0.0184909
0.0188654
0.0192288
0.0195369
0.0197751
0.019979
0.0201359
0.0202794
0.0204551
0.0181344
0.018559
0.0189697
0.019366
0.0197487
0.0200166
0.020196
0.0203231
0.0204195
0.0205592
0.0181764
0.0186784
0.019175
0.0196219
0.0200102
0.02034
0.0205574
0.0206674
0.0207233
0.0208201
0.018393
0.0188215
0.0194368
0.0199853
0.0204108
0.020706
0.0209252
0.0210419
0.0210906
0.0211181
0.0186812
0.0190887
0.0197088
0.0202692
0.0207411
0.0210617
0.0212578
0.021373
0.0214235
0.0214186
0.019003
0.0193664
0.0198359
0.0203181
0.0207919
0.0211926
0.0214509
0.0215699
0.0216071
0.0215992
0.0193843
0.0195932
0.0198202
0.0201322
0.0205293
0.0209603
0.0213039
0.0214685
0.0214963
0.0214879
0.0199587
0.0199422
0.0198845
0.019908
0.0200586
0.0204174
0.0207475
0.0210034
0.0211722
0.0211995
0.0173858
0.0178051
0.0181377
0.0184316
0.0187162
0.0190161
0.0193738
0.0196948
0.0201281
0.0203385
0.0175084
0.0178779
0.0182449
0.0185978
0.0189316
0.019219
0.019499
0.0197451
0.0200134
0.0202402
0.017594
0.0180667
0.0184558
0.0188272
0.0191525
0.0194321
0.0196912
0.0198915
0.0200841
0.0202875
0.0177558
0.0181647
0.0187008
0.0191742
0.0195194
0.0198207
0.0200309
0.020174
0.0202885
0.0204585
0.0179336
0.0184315
0.0189321
0.0194775
0.0199113
0.0202647
0.0205111
0.0206474
0.0207269
0.0208193
0.0181947
0.0187265
0.0193729
0.0199627
0.0203976
0.0207089
0.0209403
0.0210908
0.0211766
0.0212208
0.0185419
0.0191023
0.0197674
0.0203597
0.0208328
0.0211584
0.021349
0.0214598
0.0215231
0.0215295
0.0188814
0.0193769
0.0198517
0.0203404
0.0207993
0.021194
0.0214492
0.021575
0.0216232
0.0216405
0.0192329
0.0194885
0.019696
0.0199166
0.0202942
0.0207167
0.0210797
0.0213189
0.0213882
0.0214147
0.0198861
0.0198756
0.0197546
0.0196744
0.0197155
0.019913
0.0202462
0.0204653
0.0206924
0.020812
0.0168278
0.0171863
0.0175269
0.0178361
0.0181917
0.0185298
0.018952
0.0193582
0.0198063
0.0200816
0.0169613
0.0173487
0.0177431
0.018096
0.0184709
0.0188065
0.0191486
0.0194487
0.0197694
0.0200283
0.0171944
0.017641
0.0180244
0.0184507
0.0188181
0.0191311
0.0194268
0.019661
0.019888
0.0201225
0.0174047
0.0179072
0.018518
0.0188844
0.0192824
0.0196235
0.0198467
0.0200243
0.0201921
0.0204038
0.0177014
0.0182068
0.018779
0.0194171
0.0198808
0.0202039
0.0204454
0.0206014
0.0207072
0.020823
0.0180476
0.0186529
0.0193315
0.019937
0.0203776
0.0206989
0.0209329
0.0210963
0.0212081
0.0212755
0.0184579
0.019147
0.0198527
0.0204385
0.0208718
0.0211668
0.0213464
0.0214541