/*--------------------------------*- C++ -*----------------------------------*\
  =========                 |
  \\      /  F ield         | OpenFOAM: The Open Source CFD Toolbox
   \\    /   O peration     | Website:  https://openfoam.org
    \\  /    A nd           | Version:  9
     \\/     M anipulation  |
\*---------------------------------------------------------------------------*/
FoamFile
{
    format      ascii;
    class       volScalarField;
    location    "79";
    object      f13.gas;
}
// * * * * * * * * * * * * * * * * * * * * * * * * * * * * * * * * * * * * * //

dimensions      [0 0 0 0 0 0 0];

internalField   nonuniform List<scalar> 
137980
(
0.0115812
0.0119704
0.0128874
0.014068
0.0151862
0.015807
0.0159648
0.0160063
0.0162467
0.0165411
0.0111575
0.0115366
0.012344
0.0135023
0.0149688
0.0159522
0.016192
0.0162194
0.0163591
0.016618
0.0110236
0.0112853
0.011821
0.0127484
0.0139818
0.0155444
0.016307
0.0164208
0.0163486
0.0161493
0.0107664
0.0109342
0.0113001
0.0119786
0.0129054
0.0140225
0.0153272
0.016052
0.016138
0.0157096
0.0105478
0.0106328
0.0108692
0.0112987
0.0119756
0.0127678
0.0136478
0.0145048
0.0150077
0.0148792
0.0103521
0.0103707
0.0105084
0.0107705
0.0112028
0.0117647
0.0123635
0.0129533
0.0133715
0.0134495
0.0102335
0.0101889
0.0102299
0.0104046
0.0106258
0.0110018
0.0114348
0.0118388
0.0121699
0.0123494
0.0102004
0.0101057
0.0100954
0.0101702
0.0103361
0.0105045
0.0107707
0.0110872
0.0113591
0.0115703
0.0102569
0.0101193
0.0100713
0.0100854
0.0101867
0.0103533
0.010502
0.0106803
0.010854
0.0110467
0.0104721
0.0102686
0.0101881
0.0101716
0.010197
0.0102917
0.0104783
0.0106544
0.0108042
0.0109965
0.0111893
0.0117475
0.0126868
0.0138208
0.0149891
0.0157201
0.0159738
0.0161151
0.0165834
0.0171615
0.0108881
0.0114146
0.0122297
0.0135022
0.0150225
0.015932
0.0161986
0.0162849
0.0166222
0.0171161
0.0107413
0.0111413
0.0118273
0.0128428
0.0142819
0.0158482
0.0164062
0.0165271
0.016622
0.0169108
0.0104778
0.0107481
0.0112612
0.0120744
0.0131857
0.0146659
0.0160193
0.0164378
0.0165235
0.0163319
0.0102674
0.0104306
0.010753
0.0113582
0.0121688
0.0132055
0.01449
0.0156309
0.0159364
0.0157482
0.010093
0.0101707
0.0103304
0.0107411
0.0113015
0.0120262
0.0128582
0.013732
0.0143312
0.0143918
0.00998737
0.00997886
0.0100646
0.01024
0.0106492
0.0111121
0.011678
0.0122533
0.0127315
0.012969
0.00998076
0.00988124
0.00991228
0.00997882
0.0101598
0.0105007
0.0108503
0.011236
0.011577
0.0118395
0.0100685
0.0099011
0.00986659
0.00992029
0.00996291
0.0101097
0.010364
0.0106364
0.010874
0.0111006
0.0102917
0.0100661
0.00995551
0.00996039
0.0100076
0.0100687
0.0101699
0.01037
0.0105392
0.0107971
0.011048
0.0116702
0.0125625
0.0136867
0.0149154
0.0157519
0.016223
0.0165961
0.0174171
0.0190703
0.0109525
0.0114602
0.0122807
0.0136002
0.0151212
0.0160797
0.0165405
0.0172603
0.0182264
0.0194402
0.0106387
0.011178
0.0119497
0.0131528
0.0148013
0.0162259
0.0168187
0.0173411
0.0183986
0.0194416
0.0103879
0.0107588
0.0113936
0.0124184
0.0138789
0.0156555
0.0167994
0.0173396
0.0181719
0.0188044
0.0101076
0.0103516
0.0108525
0.0116398
0.0127728
0.0143024
0.0160957
0.0170224
0.0175287
0.0176988
0.00992852
0.00999675
0.0103634
0.0109069
0.0117411
0.012869
0.0142498
0.0156568
0.0162981
0.0164832
0.00981252
0.00978343
0.00993577
0.0103239
0.0108844
0.0116463
0.0125986
0.0136295
0.0144278
0.0148103
0.00973676
0.00966165
0.00967241
0.00991119
0.0102621
0.0107515
0.0113558
0.0120105
0.0125829
0.0130164
0.00970799
0.0096174
0.00959683
0.00964717
0.00990244
0.0102038
0.0105745
0.0109697
0.0112937
0.0115957
0.00984036
0.00967577
0.00964714
0.00966424
0.00972738
0.00992659
0.0102131
0.0104773
0.0106782
0.0109068
0.0111993
0.0117314
0.012457
0.0134744
0.0146031
0.0155538
0.0161339
0.0161449
0.0174563
0.0180027
0.0111945
0.0115775
0.0123646
0.0135799
0.0150689
0.0163027
0.0169881
0.0174216
0.0183106
0.0191333
0.010704
0.0112939
0.0122275
0.0135872
0.015301
0.0168778
0.0177009
0.0184023
0.0193887
0.0199956
0.0104931
0.0108885
0.0117615
0.0131183
0.0149886
0.0170193
0.0183133
0.0191032
0.0201533
0.0205976
0.0101246
0.0104603
0.0111838
0.0123664
0.0141522
0.0164041
0.018313
0.0193497
0.0202794
0.0208773
0.00980497
0.0100537
0.0105869
0.011487
0.0129311
0.0150538
0.017538
0.0191142
0.020131
0.0207459
0.00959315
0.00969622
0.0100654
0.0107346
0.0117632
0.0132526
0.0153788
0.0178241
0.0191967
0.019947
0.0094517
0.00944122
0.00969134
0.0101176
0.0108417
0.0118811
0.0132164
0.0147138
0.0162725
0.0174411
0.00942419
0.0093476
0.00942632
0.00972569
0.010196
0.0109023
0.0117594
0.0126089
0.0132524
0.0139415
0.00962579
0.00940833
0.00937991
0.00953064
0.00983286
0.0102852
0.0109441
0.0114821
0.0117739
0.0117204
0.0114102
0.0119164
0.0123578
0.0130946
0.013966
0.0149986
0.0157542
0.0164469
0.0181599
0.0175833
0.0112146
0.0116109
0.0123315
0.0134316
0.0147459
0.0159277
0.0167771
0.0175234
0.0189861
0.0189069
0.0106925
0.0113724
0.0124161
0.0137606
0.0154321
0.0168704
0.0177199
0.0185783
0.0198338
0.0201732
0.0105086
0.0110941
0.0122297
0.0138361
0.0157667
0.0175901
0.0186662
0.0195237
0.0208266
0.0213464
0.0101098
0.0107163
0.0118133
0.01348
0.0156972
0.0179366
0.019464
0.0203567
0.0214427
0.0219034
0.00978455
0.0102197
0.0111609
0.0127982
0.0151119
0.0176905
0.0197179
0.0209398
0.0218679
0.022306
0.00955308
0.00978256
0.010471
0.0118171
0.0140218
0.0168512
0.0193621
0.0209801
0.0222932
0.0233035
0.0094411
0.00946954
0.00992307
0.010898
0.0125902
0.0151327
0.0181368
0.0203279
0.0218847
0.0229943
0.00947516
0.00936149
0.00954256
0.0102306
0.0114659
0.0132461
0.0154082
0.0178504
0.0195643
0.0205376
0.00976123
0.00947258
0.00944795
0.00977259
0.0106256
0.0121128
0.0138994
0.015225
0.0150554
0.0142445
0.0117443
0.0122865
0.012406
0.0127156
0.01334
0.0144276
0.0159586
0.0176265
0.0174578
0.0173646
0.0112321
0.0116871
0.0123466
0.0132841
0.0145288
0.01593
0.017088
0.0184825
0.0194583
0.0191279
0.0106593
0.0114962
0.0125655
0.0139631
0.0156231
0.0171423
0.018244
0.0195741
0.0211799
0.0210804
0.0104787
0.0112788
0.0125679
0.0142766
0.0163489
0.018217
0.0195307
0.0209017
0.0225564
0.0227719
0.0101825
0.0110118
0.0123467
0.0143136
0.0167199
0.0190108
0.0206179
0.0220355
0.0237685
0.0243162
0.0099625
0.0105895
0.0119113
0.014053
0.0168063
0.0194712
0.021453
0.0232127
0.0248293
0.0253758
0.00987509
0.0101413
0.0113502
0.013514
0.0164972
0.019625
0.0222139
0.024043
0.0255175
0.0260229
0.0101392
0.0098982
0.0107157
0.0127837
0.0158043
0.019385
0.0227588
0.0253838
0.027127
0.0280088
0.010735
0.0101053
0.0102316
0.0118872
0.0147357
0.0183402
0.0223252
0.0251717
0.0271284
0.0291494
0.0110238
0.0103366
0.0101353
0.0110862
0.013486
0.0169478
0.0206448
0.0234349
0.0238599
0.0228807
0.0123153
0.0124364
0.0125098
0.0127764
0.0134212
0.0149636
0.0190691
0.0193594
0.0171725
0.0202254
0.0113251
0.0118962
0.0125907
0.0136607
0.0151846
0.0177668
0.0211202
0.0211328
0.0187739
0.0208383
0.0108881
0.0119416
0.0132337
0.0149257
0.0170804
0.020256
0.0225474
0.0228032
0.0205453
0.0217391
0.0107954
0.0119635
0.0137174
0.0159347
0.0186301
0.0221309
0.0239446
0.0243422
0.0224127
0.0227818
0.0107747
0.0120035
0.0140226
0.0167471
0.0200605
0.0236111
0.0252819
0.0258716
0.0243342
0.0240211
0.0108899
0.0118934
0.0141472
0.017416
0.0215005
0.0248495
0.0264636
0.0271549
0.0260711
0.0252568
0.0112437
0.0117312
0.0141278
0.0181159
0.0229606
0.0261856
0.027707
0.0283257
0.0277749
0.0268952
0.0122003
0.0116595
0.0138672
0.0186269
0.0240348
0.0274026
0.0289722
0.0295845
0.0294972
0.028401
0.012921
0.0122683
0.0135612
0.0186162
0.0251034
0.0285986
0.0301472
0.0309667
0.0311667
0.0305768
0.0133244
0.0126451
0.0135795
0.0181425
0.0249717
0.029345
0.0324462
0.0339428
0.0346582
0.0339234
0.012827
0.0127305
0.012891
0.0134776
0.0143896
0.0182824
0.0180759
0.0171497
0.0222325
0.0360669
0.0119141
0.0128072
0.0142329
0.0166122
0.0192563
0.0206134
0.019835
0.0196013
0.0267036
0.0364508
0.012206
0.0140779
0.0170729
0.0202409
0.0217691
0.0222056
0.0216379
0.0218861
0.0310673
0.0362939
0.012612
0.0153358
0.0194668
0.022338
0.0234688
0.0236481
0.0233719
0.0245867
0.0328371
0.0353314
0.0131889
0.0164267
0.0210716
0.023868
0.0248794
0.0250873
0.0249902
0.0264956
0.0333623
0.0352169
0.0138231
0.0170828
0.0221503
0.0250901
0.0261184
0.0263977
0.0264121
0.0277264
0.0337375
0.0350336
0.0144468
0.0173338
0.0228319
0.0260285
0.0272021
0.0275885
0.0276174
0.0283241
0.0336569
0.0348348
0.0151557
0.0170852
0.0230928
0.0268043
0.0281947
0.0287372
0.0288819
0.0291343
0.0334615
0.0343438
0.0161184
0.0172248
0.0230708
0.0271906
0.0289689
0.0296852
0.0299089
0.0298699
0.0329287
0.0342699
0.0183116
0.0181252
0.0234037
0.0278496
0.0297583
0.0306979
0.031203
0.0310675
0.032973
0.0343365
0.013478
0.0135865
0.0139742
0.0141551
0.0151521
0.0173193
0.0180222
0.0234725
0.0385647
0.0389588
0.0138608
0.0152448
0.0162361
0.0169101
0.0187479
0.0197041
0.0209998
0.0324702
0.0378332
0.0345468
0.0160716
0.0182025
0.0195319
0.0203017
0.0216019
0.0227038
0.0272269
0.0347284
0.0351763
0.025865
0.0177713
0.0205929
0.0219377
0.0226856
0.0239015
0.0259236
0.0319897
0.034247
0.029621
0.0218808
0.0195165
0.0223676
0.023776
0.0246264
0.0261716
0.0292444
0.03286
0.0330283
0.0258961
0.0199836
0.0208794
0.023851
0.0252893
0.0263041
0.0280796
0.0313058
0.032926
0.0317331
0.023582
0.0192476
0.0218633
0.0247533
0.02625
0.0275593
0.0295392
0.0321579
0.0328789
0.0307685
0.023048
0.0193703
0.0225559
0.0254875
0.0272922
0.0287677
0.030703
0.0326613
0.0328648
0.030449
0.0233036
0.0198319
0.0227967
0.0256203
0.0276963
0.0293042
0.0313454
0.0328461
0.0329204
0.03064
0.0239614
0.020474
0.0233716
0.026046
0.0283118
0.030119
0.031935
0.033184
0.0331058
0.0314421
0.02559
0.0219029
0.0155691
0.0157962
0.0153502
0.0157489
0.0179028
0.0203834
0.0291866
0.038215
0.0378043
0.036547
0.0160393
0.016838
0.0169823
0.0184938
0.0211824
0.0256948
0.0353927
0.0377153
0.0357461
0.0332592
0.0177925
0.0190324
0.0196923
0.0215477
0.025363
0.0331077
0.0361447
0.0361185
0.029889
0.0263912
0.0201146
0.0213046
0.0224991
0.0249646
0.0305566
0.035137
0.0355831
0.0317699
0.0250549
0.0223318
0.0219146
0.0231794
0.0249148
0.0283121
0.0335612
0.0350575
0.034215
0.0272594
0.0222288
0.0199661
0.0236441
0.0250455
0.0272136
0.0309747
0.0344007
0.0347931
0.0315022
0.0240184
0.020503
0.0185795
0.0247094
0.0262758
0.0286896
0.0327302
0.0346031
0.0343406
0.0295228
0.0224777
0.0195215
0.0178583
0.0257568
0.0274864
0.0300975
0.0335648
0.034584
0.0334581
0.0277297
0.0215762
0.0189584
0.017472
0.0261676
0.0278904
0.0306147
0.0338578
0.0345911
0.0333659
0.0276882
0.0216056
0.0187801
0.0174228
0.0266386
0.0285431
0.0312489
0.0341053
0.0346422
0.0336168
0.0286007
0.0221394
0.0188581
0.017483
0.0164233
0.0167606
0.0167303
0.0179535
0.0208499
0.0245402
0.0345657
0.0360165
0.0349144
0.0348874
0.0166718
0.0174253
0.017891
0.0200655
0.024013
0.0295966
0.0360841
0.0364989
0.0355933
0.0354049
0.0177516
0.0189215
0.020007
0.0227622
0.0275775
0.0344147
0.0367528
0.0363098
0.0351065
0.034512
0.0200347
0.0210034
0.0223788
0.0257722
0.032566
0.0361988
0.0367544
0.035747
0.0338794
0.0312041
0.0221376
0.0228872
0.0250573
0.0295963
0.0353378
0.0367502
0.0365618
0.0346695
0.0313915
0.0279876
0.0241167
0.0250553
0.0277082
0.033222
0.0363885
0.0367792
0.0358149
0.0324725
0.0287999
0.025045
0.0253948
0.0265536
0.0300786
0.0352054
0.0367362
0.0367232
0.0351262
0.0310822
0.0273167
0.0240705
0.0263402
0.0282152
0.0320732
0.0361292
0.0368865
0.036534
0.0339525
0.0298695
0.0264434
0.0226121
0.0269994
0.0286617
0.0329331
0.0365108
0.0370177
0.0365667
0.0338724
0.02972
0.0257654
0.0222706
0.0275005
0.0295894
0.0338041
0.0368201
0.037148
0.0366846
0.0345347
0.0302068
0.0256603
0.0211931
0.0187054
0.0191551
0.0197795
0.0214647
0.0228579
0.0263682
0.0294723
0.0282304
0.0281187
0.0288113
0.0193748
0.0201885
0.0212475
0.0234465
0.0253094
0.0283928
0.0302482
0.0290776
0.0286525
0.0290068
0.021702
0.0220707
0.0233741
0.0256772
0.0278248
0.0300145
0.0308043
0.0293052
0.0288211
0.0294943
0.0251606
0.024789
0.0259567
0.0281825
0.0301742
0.0309617
0.0308364
0.0293418
0.0291211
0.0301954
0.0287122
0.0279169
0.0287756
0.0304948
0.0315358
0.0315305
0.0307442
0.0295692
0.0296723
0.0310587
0.0307043
0.030671
0.0313881
0.0323417
0.0327068
0.0319468
0.0309535
0.0302089
0.0309096
0.0330136
0.0316164
0.0319754
0.033274
0.0340569
0.0337757
0.0327777
0.0315832
0.0315207
0.0324197
0.0343689
0.0326931
0.0331423
0.0345912
0.0355043
0.0352272
0.0338947
0.0331752
0.0332901
0.0341814
0.034943
0.0330428
0.0335368
0.0350467
0.03637
0.0364583
0.035975
0.0345766
0.0346467
0.0352059
0.0356609
0.0332979
0.0340681
0.0357719
0.0371744
0.0375316
0.0374633
0.0371269
0.0360735
0.0364196
0.0348078
0.0303141
0.032503
0.0331801
0.0338111
0.0338947
0.0340692
0.0320705
0.0304234
0.0302178
0.0298965
0.0316624
0.032003
0.0329696
0.0339967
0.0343359
0.0348374
0.0348014
0.0336
0.0325229
0.0317823
0.032409
0.0324605
0.0329677
0.0338794
0.0343447
0.0351201
0.0357826
0.0356077
0.0347741
0.0332479
0.0328096
0.0327118
0.0330062
0.0337895
0.0341429
0.0347695
0.035838
0.036573
0.0363218
0.0353428
0.0323136
0.0320512
0.0322868
0.0330947
0.0338858
0.0345974
0.0352712
0.0368908
0.0372993
0.0369192
0.0303292
0.0306933
0.0317127
0.0327716
0.0335137
0.0341459
0.0348521
0.0364965
0.0378969
0.0374267
0.029222
0.0301485
0.0316116
0.0326759
0.0333826
0.0339751
0.0345618
0.0357723
0.0382324
0.0378307
0.0286728
0.0299482
0.0314947
0.0325644
0.0333371
0.0340514
0.0345094
0.0354419
0.038153
0.038296
0.0285605
0.0301449
0.0316678
0.0327246
0.0338097
0.0350949
0.0351683
0.0356016
0.0377492
0.0389164
0.0290927
0.0310588
0.0324481
0.03362
0.0360351
0.0369409
0.0366842
0.0358234
0.0380581
0.0382143
0.0289909
0.0292995
0.0290683
0.0290236
0.0291948
0.0297785
0.0307147
0.0313034
0.0314593
0.0319114
0.0277063
0.0274733
0.0275422
0.0277219
0.0282224
0.0289926
0.029663
0.0304013
0.0308892
0.0318425
0.0267774
0.0265313
0.026619
0.0271447
0.0278507
0.0286013
0.0292517
0.0299529
0.0304924
0.0316167
0.0254619
0.0255803
0.0261299
0.0270366
0.0277525
0.0284967
0.0291154
0.0296801
0.0302536
0.0315059
0.0246467
0.0252421
0.0261346
0.0270836
0.0280427
0.0288926
0.0292158
0.0295721
0.0301333
0.031476
0.0242973
0.0253748
0.0264935
0.0279437
0.0292339
0.0300828
0.0302062
0.030152
0.0303519
0.0320058
0.0246089
0.0261337
0.0278561
0.0297106
0.0311036
0.031423
0.0311361
0.030593
0.0306866
0.0323375
0.0263508
0.0278197
0.0300096
0.0321056
0.0324633
0.032096
0.0312706
0.0305241
0.0306463
0.0323745
0.0271321
0.0289969
0.0320702
0.0333235
0.0330584
0.032214
0.0308614
0.029958
0.0306118
0.0332391
0.027234
0.0303588
0.0332883
0.033973
0.0332644
0.0318604
0.0304066
0.0305009
0.0318677
0.0322714
0.0294523
0.0293735
0.02922
0.0290659
0.028899
0.0286455
0.0284293
0.02819
0.0275719
0.0253533
0.0293576
0.0292338
0.0290595
0.02887
0.0285576
0.028193
0.0279635
0.0277048
0.0269806
0.0259296
0.0291309
0.0290323
0.0288902
0.0286787
0.0283165
0.0278756
0.0275641
0.0271899
0.0261511
0.0250977
0.0289391
0.0289339
0.0288241
0.0285962
0.0282138
0.0277703
0.0273657
0.0266446
0.0250414
0.023692
0.0287441
0.0288927
0.028802
0.028581
0.0282346
0.0277769
0.026949
0.0252384
0.0228087
0.0205173
0.0285847
0.028885
0.0288017
0.0286793
0.0284937
0.0277005
0.0257012
0.0225318
0.0197477
0.0182077
0.0285149
0.0288827
0.0288122
0.0289793
0.0286484
0.0266574
0.0233446
0.0204375
0.0183285
0.0171789
0.0284436
0.0288506
0.0287341
0.0291457
0.0284427
0.0250183
0.0218834
0.0195848
0.017813
0.0168824
0.0281948
0.0287246
0.0285994
0.0291127
0.0278066
0.0239418
0.0211813
0.0195209
0.0186296
0.0179748
0.0280166
0.0285048
0.0277394
0.0283034
0.0268087
0.0234627
0.0216434
0.0203358
0.0194399
0.0186289
0.0288975
0.0283017
0.0274198
0.0265351
0.0256365
0.0248829
0.0229747
0.0220158
0.0236527
0.0232045
0.0286597
0.0281887
0.027224
0.0261727
0.0251124
0.0240277
0.0220954
0.0218322
0.0228644
0.0225744
0.0278247
0.0273647
0.0263939
0.0253334
0.024268
0.0230323
0.0215745
0.0210201
0.0224
0.0225591
0.0273676
0.0270076
0.0260068
0.0248956
0.0237852
0.0224432
0.0210574
0.0204669
0.0213611
0.0220842
0.0267876
0.0262991
0.0251939
0.0241905
0.0230677
0.0216883
0.0205458
0.020071
0.0204163
0.020872
0.0263285
0.0257308
0.0247287
0.0238116
0.0225588
0.0210999
0.0201169
0.0196851
0.0196427
0.0195147
0.025822
0.0248998
0.0240087
0.0232647
0.0220794
0.020756
0.0197949
0.019257
0.0188647
0.0183681
0.025255
0.0242069
0.0234341
0.0228965
0.0219228
0.0205972
0.0195756
0.01889
0.0182583
0.0176823
0.0246681
0.0233568
0.0226355
0.0225979
0.0218522
0.0205689
0.019569
0.0188462
0.0181245
0.0174688
0.0241491
0.022678
0.0220405
0.0220807
0.0215924
0.0206579
0.0197798
0.0189489
0.0180486
0.0170066
0.0261018
0.0271378
0.0268317
0.0264516
0.0259821
0.0265773
0.0273396
0.0293861
0.0294612
0.0249544
0.0258034
0.0268724
0.0268184
0.0263339
0.0253618
0.0256933
0.0264577
0.0281628
0.0295906
0.027998
0.0254137
0.0265882
0.0264803
0.025979
0.0248491
0.0248635
0.0254234
0.0265359
0.0288551
0.0287368
0.0252728
0.0264525
0.0263313
0.0256784
0.0243236
0.0239536
0.0244929
0.0255414
0.0277841
0.0283438
0.0252152
0.0262501
0.0259549
0.0250162
0.023644
0.0229894
0.0235546
0.0248118
0.0272822
0.0280461
0.0256974
0.0260928
0.0255254
0.0242288
0.0228018
0.0220712
0.022649
0.0241834
0.0271834
0.0273412
0.0259062
0.0256235
0.0246521
0.0231689
0.0217984
0.02111
0.0217125
0.0237387
0.0272114
0.0256462
0.0256688
0.0249127
0.0236427
0.0221595
0.0207773
0.0201045
0.0206488
0.0227342
0.0270074
0.026813
0.0250242
0.0238634
0.0226825
0.0210792
0.0195732
0.019006
0.0194055
0.0208442
0.0251703
0.0267103
0.0241375
0.0232228
0.021682
0.0198367
0.018388
0.0180132
0.018312
0.019439
0.0229689
0.0228708
0.0232048
0.0264782
0.0296537
0.0308689
0.0311747
0.0309184
0.0274984
0.0261333
0.0254994
0.0237125
0.0237555
0.0246254
0.0263159
0.0284717
0.0309782
0.031948
0.0309006
0.0256432
0.0240577
0.0229103
0.0225334
0.0236417
0.0249608
0.0263006
0.0277507
0.0313644
0.0329313
0.029807
0.024609
0.0230621
0.0218702
0.0227799
0.0243741
0.0255755
0.0265222
0.0280742
0.0319673
0.0348192
0.0267996
0.0238446
0.0214698
0.0225003
0.0242088
0.0253744
0.0260226
0.026968
0.0287588
0.0339171
0.0318593
0.0255188
0.0212812
0.0227735
0.0248431
0.0258299
0.0259282
0.0263286
0.0275834
0.0313569
0.0334817
0.0288333
0.021593
0.0237293
0.0255509
0.0261161
0.0260633
0.0260499
0.0267051
0.0287852
0.0332986
0.029409
0.0229238
0.0252093
0.0266039
0.026518
0.0261794
0.0255547
0.0259612
0.0274679
0.0324205
0.0314538
0.02511
0.0269819
0.0270921
0.0265976
0.0258492
0.0248085
0.0250809
0.0262324
0.0304554
0.0313291
0.0273607
0.0277
0.0272105
0.0258851
0.0245687
0.0233346
0.0236048
0.024524
0.0264222
0.0252515
0.0199582
0.0174822
0.016584
0.0167748
0.0171702
0.01813
0.0192749
0.0195762
0.0196408
0.0204393
0.0194747
0.0177034
0.0178275
0.0197078
0.0209555
0.0212982
0.0212742
0.021
0.0209561
0.0211597
0.0188448
0.0187558
0.0214973
0.02284
0.0231201
0.0230918
0.022928
0.0229062
0.0232412
0.0237108
0.0198149
0.0218708
0.0237292
0.024139
0.0241484
0.0238327
0.0234658
0.0233272
0.0235476
0.0236164
0.0216662
0.0237358
0.0244985
0.024622
0.0244344
0.0238171
0.023438
0.0233277
0.0231616
0.0217617
0.0227158
0.0244692
0.024963
0.0248961
0.0244999
0.0238425
0.0233344
0.0231076
0.0223226
0.0213153
0.0231908
0.0244501
0.025439
0.025417
0.0247722
0.024015
0.0233243
0.0226917
0.0218353
0.0213623
0.0230589
0.0240311
0.0255289
0.0260082
0.0255721
0.0245467
0.023684
0.0229425
0.0217195
0.0211785
0.0223075
0.0233003
0.0246826
0.0259712
0.0263553
0.0259365
0.0249936
0.0240773
0.0219962
0.022161
0.0216327
0.0226133
0.0237447
0.0250851
0.0261466
0.0264551
0.0269016
0.0264698
0.0235323
0.0221273
0.0150649
0.0145279
0.0143431
0.0143915
0.0149559
0.016162
0.0174964
0.0186048
0.019663
0.0197647
0.0152004
0.0147484
0.0145268
0.014609
0.015171
0.0164452
0.0180895
0.0191468
0.0193877
0.0191105
0.0152761
0.0149137
0.014667
0.0147502
0.0153039
0.0166152
0.0185174
0.0194785
0.0196397
0.0196296
0.0154091
0.0150041
0.0148251
0.0149204
0.015436
0.0166815
0.0186732
0.019669
0.0198895
0.0200491
0.0157591
0.0151596
0.0149538
0.0150694
0.015541
0.0166651
0.0186538
0.0196761
0.0198532
0.0200001
0.0160452
0.015528
0.0151785
0.0151898
0.0155793
0.0165686
0.0184641
0.019669
0.0197042
0.0199372
0.0160311
0.0156736
0.0154091
0.0153452
0.0156463
0.0164272
0.0178839
0.0195513
0.0196027
0.02033
0.0158921
0.0155937
0.0155041
0.0156665
0.0158789
0.0164461
0.0172671
0.019008
0.0193311
0.0202199
0.0158497
0.0157255
0.0158105
0.0162868
0.0165767
0.0168486
0.0173018
0.0183582
0.0186329
0.0193826
0.0159617
0.0159819
0.016833
0.0176736
0.0184468
0.0190684
0.0189819
0.0189858
0.0191349
0.0192368
0.0158391
0.0157632
0.0151907
0.0144501
0.0137159
0.0134087
0.0133279
0.0132231
0.0132317
0.0133094
0.0155724
0.015512
0.0152939
0.0147799
0.0141599
0.0134409
0.0130364
0.0131159
0.0129698
0.0128895
0.0149274
0.0149699
0.0150347
0.0147434
0.0143092
0.0136571
0.0129206
0.0128864
0.0128276
0.0126996
0.0141511
0.0142341
0.0142574
0.0143023
0.01416
0.0138699
0.0129677
0.0128061
0.0127099
0.0125623
0.0138652
0.0135584
0.013743
0.0135905
0.0136118
0.0137527
0.0132835
0.0128274
0.012624
0.012535
0.0137687
0.0132643
0.0132279
0.0133722
0.0131731
0.0130164
0.0132671
0.0129641
0.0126592
0.012655
0.0136188
0.0132332
0.0130571
0.0130398
0.0129149
0.0126796
0.0126241
0.0128544
0.0127151
0.0126537
0.0134394
0.0129595
0.0121315
0.011815
0.011744
0.0117567
0.0119347
0.0125524
0.0127042
0.0127017
0.0122976
0.0119023
0.0117511
0.0116949
0.0116876
0.0116795
0.0120414
0.0122319
0.0120348
0.012124
0.0117187
0.0116281
0.0115956
0.0117099
0.0117892
0.0116566
0.0119608
0.0119662
0.0120372
0.0127289
0.0077726
0.00781044
0.00795659
0.00811308
0.00815951
0.00819642
0.00820431
0.00815554
0.0080711
0.00806118
0.00775696
0.00781754
0.00791497
0.00798934
0.00813522
0.00820937
0.00824211
0.00828819
0.00829118
0.00838658
0.00776266
0.00778007
0.00780945
0.00782257
0.0079219
0.00818422
0.00823506
0.00825117
0.00829424
0.00831092
0.00783883
0.00782432
0.00781969
0.0078175
0.00782066
0.00781467
0.00800508
0.00804476
0.00796647
0.0079479
0.00785342
0.00785353
0.00785222
0.00784499
0.00783765
0.00782131
0.00780422
0.00788753
0.00797617
0.00791925
0.00788088
0.00786226
0.00784779
0.00783236
0.00783112
0.0078264
0.00781103
0.00781224
0.0078326
0.00780114
0.00782572
0.00783706
0.00783569
0.00782616
0.00781228
0.00781434
0.00780983
0.00779897
0.00779194
0.00774741
0.00784539
0.00781128
0.00781119
0.00780854
0.00779653
0.00779539
0.00779289
0.00777144
0.00774372
0.00774051
0.00785798
0.00776148
0.00776777
0.00776079
0.00774979
0.00775243
0.00775263
0.00775867
0.00782335
0.00776549
0.00789432
0.00777506
0.00776538
0.00775309
0.00773663
0.00772903
0.00775115
0.00780401
0.00781719
0.00780437
0.00704946
0.00699996
0.00697657
0.00698806
0.00703408
0.00722417
0.00750735
0.00763582
0.00772747
0.00767303
0.00716262
0.00720988
0.00719503
0.00722187
0.0073036
0.00758306
0.00765562
0.00775771
0.00774224
0.00749858
0.00723411
0.00737867
0.00742515
0.00754678
0.00761467
0.0076969
0.00780451
0.0078302
0.00775961
0.00742024
0.00739661
0.00745877
0.00745666
0.00751349
0.007618
0.00778335
0.00787048
0.00787601
0.00781491
0.00754665
0.00748471
0.00750829
0.00747912
0.00749068
0.00757141
0.00768308
0.00789615
0.0079615
0.00792698
0.00778867
0.00745021
0.0074539
0.00746901
0.00747751
0.0075232
0.00758611
0.00767781
0.00793499
0.00804045
0.00801473
0.00780287
0.00772524
0.00754948
0.0074981
0.00751528
0.00756599
0.00760387
0.00770856
0.00804796
0.00809209
0.00794766
0.00793256
0.00783537
0.00764739
0.00755687
0.00757829
0.00761454
0.00773231
0.00813457
0.00812444
0.00779558
0.00787851
0.0078489
0.00775211
0.00767504
0.00763988
0.00763132
0.00805303
0.00814034
0.00796149
0.00775346
0.00772461
0.00780986
0.00772438
0.00766153
0.00762098
0.00803073
0.00806952
0.00781652
0.00755757
0.00719079
0.00716618
0.00713901
0.00747834
0.00769327
0.00779913
0.00784336
0.00780237
0.00773079
0.00772267
0.00728211
0.00732623
0.00744906
0.00775271
0.00784912
0.00787462
0.00784996
0.00770022
0.00761133
0.00763516
0.00763435
0.00771376
0.0078544
0.00790822
0.00796805
0.00799415
0.00792322
0.00777826
0.00767489
0.00763532
0.00803935
0.00805938
0.00806216
0.00806912
0.00809473
0.00808273
0.00803111
0.00794638
0.00781221
0.00766946
0.00814064
0.00815927
0.00815323
0.00816964
0.00818245
0.00815804
0.00809434
0.00800034
0.00785573
0.00768867
0.00807443
0.00821622
0.00821912
0.00820355
0.00819356
0.00817677
0.00812179
0.00802857
0.00789528
0.00778877
0.00823444
0.00826762
0.00824629
0.00820507
0.0081908
0.00818265
0.00816418
0.00814478
0.00812197
0.00801917
0.00842321
0.00833845
0.00826156
0.00820426
0.00819133
0.00823301
0.0083225
0.00835689
0.008277
0.00807569
0.00843831
0.00832273
0.00821292
0.008171
0.00819618
0.00831589
0.00836194
0.00831748
0.00814045
0.00791016
0.00834559
0.00821571
0.00812596
0.00810452
0.00815791
0.00823093
0.0082056
0.0080587
0.0078257
0.00769572
0.0153288
0.0155483
0.015757
0.0159114
0.0159956
0.0160053
0.0160275
0.0160703
0.0161508
0.0163424
0.0152973
0.0155488
0.0157181
0.0158301
0.0159154
0.0159522
0.0159613
0.0159553
0.0160011
0.0161328
0.0150109
0.0154028
0.0156938
0.0158774
0.0159441
0.0159597
0.0159545
0.0159345
0.0159389
0.0160044
0.0147866
0.0151579
0.0155544
0.0158413
0.0160162
0.0160434
0.0160265
0.0159703
0.0159642
0.015981
0.0146903
0.014994
0.0153865
0.0157494
0.0160158
0.0161361
0.0161419
0.0161111
0.0160428
0.0159986
0.0147545
0.0149606
0.015339
0.0157207
0.0160302
0.0162182
0.0162653
0.0162468
0.0161891
0.0160758
0.0149667
0.0151123
0.0154551
0.015796
0.0160841
0.0162984
0.016399
0.0163915
0.0163404
0.0162325
0.0152955
0.0154205
0.0157066
0.0159968
0.0162493
0.016439
0.016524
0.0165189
0.0164715
0.0163582
0.0157048
0.0157963
0.0160117
0.0162713
0.0164864
0.0166174
0.0166499
0.0166286
0.0165613
0.0164436
0.0160916
0.016152
0.0163192
0.0165557
0.0167221
0.016789
0.0167724
0.0167075
0.0165883
0.0164679
0.014822
0.0150889
0.0153093
0.0155046
0.015625
0.0156971
0.0157668
0.0158604
0.0159689
0.0161865
0.0148246
0.0150939
0.0152996
0.0154334
0.01555
0.0156416
0.0157018
0.0157463
0.0158134
0.0159141
0.0145911
0.0149897
0.0152924
0.0154984
0.0156045
0.0156581
0.0156973
0.0157199
0.0157612
0.0158112
0.0143898
0.0147779
0.0151766
0.0154885
0.0156939
0.0157774
0.0157839
0.0157795
0.0157898
0.0158216
0.0143199
0.0146153
0.015017
0.0154122
0.0157208
0.0158931
0.0159517
0.0159445
0.0159117
0.015892
0.0144182
0.0146008
0.0149933
0.0154025
0.0157564
0.0160099
0.0161209
0.0161385
0.0161232
0.0160754
0.0146419
0.0147793
0.0151143
0.0155016
0.0158551
0.0161223
0.0162824
0.0163376
0.0163322
0.0162656
0.0149752
0.0150686
0.0153306
0.0156852
0.0160155
0.0162681
0.0164201
0.0164819
0.0164771
0.0164082
0.0153373
0.0153878
0.0155497
0.0158427
0.0161547
0.0163967
0.0165262
0.0165617
0.0165507
0.0164816
0.015732
0.0157425
0.0158281
0.0160204
0.0162647
0.0164801
0.0165909
0.0165915
0.0165609
0.0164665
0.0142893
0.0145682
0.0147955
0.0150159
0.0151799
0.0153143
0.0154306
0.0156072
0.0157292
0.0159897
0.0143257
0.0145956
0.0148023
0.0149846
0.0151495
0.0152802
0.0153922
0.0154883
0.0156003
0.0157107
0.0141884
0.0145523
0.0148499
0.0150776
0.0152225
0.015323
0.0154105
0.0154881
0.0155708
0.015644
0.0140271
0.0144409
0.0148163
0.0151222
0.0153611
0.0154971
0.0155627
0.0155854
0.0156283
0.0156849
0.0139899
0.0143017
0.0147637
0.0151559
0.0154739
0.0156919
0.0158001
0.0158397
0.0158401
0.0158568
0.0141179
0.0143275
0.0147697
0.0152306
0.0156182
0.0158916
0.016059
0.0161311
0.0161358
0.0161217
0.0143433
0.0145277
0.0149233
0.0153832
0.0157951
0.0161083
0.0162974
0.0163695
0.0163767
0.016357
0.0146833
0.0148259
0.0151435
0.0155234
0.0159082
0.0162287
0.0164361
0.0165204
0.0165346
0.0165166
0.015061
0.0151383
0.0153048
0.0155625
0.0158979
0.0162387
0.0164713
0.0165605
0.0165674
0.0165458
0.0155462
0.015535
0.0155255
0.0155908
0.0158051
0.0161035
0.0163529
0.0164621
0.016488
0.0164453
0.0137223
0.0140186
0.0142719
0.0145033
0.0147051
0.0148885
0.0150583
0.0152805
0.0154833
0.0157544
0.0138043
0.0140685
0.0142943
0.0145123
0.0147163
0.014894
0.015068
0.0152154
0.0153778
0.0155114
0.0137645
0.0141222
0.0144136
0.0146395
0.014826
0.0149773
0.015124
0.0152463
0.0153773
0.015489
0.0136975
0.0140983
0.0144861
0.0148229
0.0150671
0.0152377
0.0153537
0.0154254
0.0154926
0.0155833
0.0136995
0.0140901
0.0145391
0.014963
0.0153204
0.0155582
0.0157058
0.0157915
0.0158242
0.0158695
0.0138673
0.01416
0.0146692
0.0151688
0.0155777
0.01588
0.0160664
0.0161522
0.0161847
0.0161992
0.0141104
0.0143807
0.0148976
0.0153983
0.0158296
0.0161509
0.0163539
0.0164466
0.01649
0.0164852
0.0144202
0.014672
0.0150578
0.0154565
0.0158742
0.0162304
0.0164738
0.0165907
0.0166381
0.0166329
0.0147853
0.0149503
0.0151244
0.015359
0.0156738
0.0160398
0.0163573
0.0165141
0.0165482
0.0165365
0.0153899
0.0153789
0.0153017
0.0152783
0.0153723
0.0156434
0.0159353
0.0161535
0.0162878
0.0163116
0.0131702
0.01348
0.0137324
0.0139819
0.0142162
0.0144506
0.0146832
0.0149549
0.0152164
0.0155128
0.0132763
0.0135374
0.0137994
0.0140574
0.0142922
0.0145147
0.0147301
0.0149423
0.0151521
0.0153194
0.0133541
0.0136858
0.0139712
0.0142292
0.0144654
0.0146694
0.0148509
0.0150137
0.0151919
0.0153406
0.013386
0.0137889
0.0141802
0.0145068
0.0148008
0.0150175
0.0151852
0.0153083
0.0154072
0.0155347
0.0134562
0.013886
0.0143668
0.0148461
0.0152008
0.0154606
0.0156408
0.0157562
0.0158269
0.0159106
0.013655
0.0140474
0.0146177
0.015164
0.0155876
0.0158943
0.0160879
0.016202
0.0162676
0.0162953
0.0139351
0.0143499
0.0149249
0.0154443
0.0158841
0.0162131
0.0164214
0.0165262
0.0165892
0.0165913
0.0142428
0.014634
0.0150183
0.0154148
0.0158309
0.0162098
0.0164662
0.0165958
0.0166467
0.0166638
0.014584
0.0148183
0.0149851
0.0151354
0.0154291
0.0157857
0.0161179
0.0163523
0.0164323
0.0164589
0.0152455
0.0152623
0.0151678
0.0150297
0.0150375
0.0151679
0.0154551
0.0156413
0.0158068
0.0159347
0.0126451
0.0129278
0.0131873
0.0134641
0.0137286
0.0140124
0.0142964
0.0146342
0.0149511
0.0152562
0.0127662
0.0130495
0.013337
0.013618
0.013878
0.0141323
0.0143963
0.0146635
0.0149282
0.0151272
0.0129524
0.0132617
0.0135706
0.0138657
0.0141449
0.0143815
0.0146039
0.0148048
0.0150131
0.0152041