/*--------------------------------*- C++ -*----------------------------------*\
  =========                 |
  \\      /  F ield         | OpenFOAM: The Open Source CFD Toolbox
   \\    /   O peration     | Website:  https://openfoam.org
    \\  /    A nd           | Version:  9
     \\/     M anipulation  |
\*---------------------------------------------------------------------------*/
FoamFile
{
    format      ascii;
    class       volScalarField;
    location    "79";
    object      f16.gas;
}
// * * * * * * * * * * * * * * * * * * * * * * * * * * * * * * * * * * * * * //

dimensions      [0 0 0 0 0 0 0];

internalField   nonuniform List<scalar> 
137980
(
0.00280935
0.00294188
0.0032936
0.00385327
0.00444649
0.00474347
0.00480477
0.00481598
0.00487779
0.00494735
0.00270106
0.00281624
0.00306764
0.00352082
0.00420722
0.00471887
0.00482509
0.00483455
0.00484725
0.00488205
0.00268223
0.00276117
0.00291706
0.00321782
0.00370911
0.00441063
0.00477672
0.00480603
0.00470257
0.00452942
0.00258466
0.00263288
0.00273734
0.00294131
0.00326616
0.00369517
0.0042397
0.00458549
0.0046125
0.00435003
0.00250061
0.00252561
0.00259066
0.00272159
0.00292257
0.00321653
0.00353588
0.00388293
0.00409804
0.0040716
0.0024154
0.00242098
0.00245468
0.00254113
0.00266258
0.00284228
0.00306172
0.00326959
0.00342737
0.00348376
0.0023586
0.00234294
0.00234695
0.00239456
0.00247772
0.00258066
0.00271809
0.00286925
0.00298951
0.00306677
0.002335
0.00230559
0.00229797
0.00231018
0.0023656
0.00243665
0.00251507
0.00261646
0.00269101
0.00276969
0.00233862
0.00230045
0.00228566
0.00228709
0.00231095
0.00237668
0.00244509
0.00250622
0.00255048
0.00260762
0.00239618
0.00233213
0.00231365
0.00231123
0.00231595
0.00234605
0.0024161
0.00248132
0.00252641
0.00259544
0.00264456
0.00281899
0.0031837
0.00371737
0.00430923
0.00465168
0.00475545
0.00479097
0.00491587
0.00509552
0.00254304
0.00270401
0.00296613
0.00346595
0.00421815
0.00468343
0.00480441
0.00484307
0.00491621
0.00505537
0.00251702
0.00264944
0.00284702
0.00321332
0.00378392
0.00452965
0.0047924
0.00482879
0.00482658
0.00485473
0.00243206
0.00251477
0.00264553
0.00291696
0.00331016
0.00386997
0.00450185
0.00468986
0.0046976
0.00448645
0.00235207
0.0024063
0.00249544
0.00266705
0.00294099
0.00328967
0.00374494
0.00421582
0.00437057
0.0042946
0.00228374
0.00230832
0.00236117
0.00245882
0.00264424
0.00287184
0.00314283
0.00343892
0.00366382
0.0037504
0.00224267
0.00223672
0.00226212
0.00230924
0.0024126
0.00257237
0.00274319
0.00292762
0.00308359
0.0031953
0.00223942
0.00220395
0.00220713
0.00223364
0.00226876
0.00235857
0.00247597
0.00260436
0.00270689
0.00280622
0.00226648
0.00220984
0.00219441
0.00220945
0.00223327
0.00226025
0.00231916
0.00239937
0.00246127
0.00254215
0.00233079
0.00225619
0.00221833
0.00222026
0.00224036
0.00226733
0.00229719
0.00233819
0.00237102
0.00245073
0.00249665
0.00272233
0.0030684
0.00357662
0.00422652
0.00465485
0.00479916
0.00481306
0.00501067
0.00584889
0.00251672
0.00268321
0.00294649
0.00348393
0.00425164
0.004725
0.00491703
0.00517965
0.00548077
0.00598288
0.00240028
0.00258992
0.0028524
0.00326776
0.00396356
0.00467125
0.0049474
0.00516503
0.00562531
0.00601225
0.00232849
0.00243801
0.00263813
0.00296893
0.00348177
0.00423613
0.00481085
0.00505233
0.00541422
0.00561838
0.00224872
0.00231877
0.00246109
0.0026999
0.00305635
0.00357117
0.0042735
0.00475289
0.00496251
0.00499318
0.00219291
0.00221449
0.00229861
0.00246875
0.00270501
0.00303938
0.00348434
0.00400126
0.00430731
0.0044319
0.002156
0.0021487
0.00217715
0.00227614
0.00243771
0.00264979
0.0029195
0.00323816
0.00351095
0.00371064
0.00213902
0.00211591
0.00211518
0.00214756
0.00225141
0.00238366
0.00254349
0.00272607
0.00288716
0.00305755
0.00212997
0.00210614
0.00209831
0.00210038
0.00213636
0.00222865
0.00233018
0.00243106
0.00250627
0.00260473
0.00216448
0.00211994
0.0021146
0.00211635
0.00212114
0.00214889
0.00222288
0.00230346
0.00235617
0.00242611
0.00244301
0.00267181
0.00296234
0.00341917
0.00406566
0.00461164
0.00481101
0.00457439
0.00481427
0.00528511
0.00251841
0.00266594
0.00292792
0.00346216
0.00422657
0.00489246
0.00511572
0.00512199
0.00526515
0.00572783
0.00235562
0.00256715
0.00287695
0.00336956
0.00415164
0.00499922
0.00540468
0.005659
0.00593359
0.00611553
0.00229215
0.00241276
0.00267266
0.00310741
0.0038234
0.00485233
0.00557278
0.00595823
0.00639615
0.00651643
0.00217718
0.00227849
0.0024857
0.00282222
0.00338281
0.00429892
0.00539751
0.00592958
0.00637662
0.00654063
0.00209052
0.00214929
0.00229932
0.00254432
0.00294214
0.00359981
0.00464222
0.00560766
0.00613835
0.00636913
0.00202958
0.00205128
0.00213775
0.00231599
0.00258125
0.00299356
0.00364238
0.00457093
0.00542235
0.00582605
0.0019863
0.00198811
0.00203284
0.00215283
0.00231912
0.00257407
0.00293705
0.00340264
0.00387704
0.00437922
0.00196635
0.00195789
0.00197632
0.00203868
0.00215968
0.00231631
0.00252439
0.00274447
0.00289391
0.00310907
0.0020295
0.00196371
0.00197052
0.00199643
0.00206821
0.00217987
0.00232606
0.00245291
0.00249473
0.00247891
0.00243537
0.00265436
0.00290705
0.00325635
0.0037652
0.00442888
0.00472807
0.00467276
0.00504372
0.00475425
0.00250407
0.00265592
0.00291106
0.00341319
0.00414608
0.00483847
0.00516143
0.00520422
0.0054686
0.00514338
0.00229208
0.00255897
0.00292581
0.00350637
0.00437925
0.00528355
0.00565902
0.00586323
0.00614223
0.00578504
0.00221086
0.00239854
0.00277934
0.00342514
0.00442412
0.00554278
0.00613909
0.00643203
0.00670238
0.00646284
0.00207383
0.00226321
0.00258153
0.00316568
0.00417055
0.00551923
0.00646829
0.00687322
0.00705584
0.00686829
0.00198313
0.002105
0.0023564
0.00281913
0.00368388
0.00504847
0.00640143
0.00708147
0.00735229
0.00734016
0.00193188
0.00198318
0.00216692
0.0024893
0.00310124
0.00423257
0.00585909
0.00695864
0.00750193
0.00775383
0.00191012
0.00190833
0.00202193
0.00224518
0.00265388
0.00341145
0.004631
0.00623264
0.00704381
0.00748428
0.00194577
0.00189072
0.00192233
0.00207922
0.00235153
0.00281403
0.00352867
0.00443649
0.00517059
0.00557871
0.00202983
0.00193038
0.00190403
0.0019776
0.00215218
0.00249371
0.00300756
0.00338294
0.00324582
0.00289345
0.00245851
0.00262598
0.00282775
0.00304977
0.00339974
0.00399674
0.00481575
0.00523301
0.00451974
0.00431723
0.00245797
0.00261553
0.00288104
0.00332357
0.00398505
0.00483882
0.00535217
0.00570987
0.00528298
0.00465831
0.00222281
0.0025522
0.00295432
0.0035547
0.00447187
0.00544717
0.00598247
0.00632864
0.00613427
0.00527946
0.00212383
0.00238944
0.00284881
0.00357791
0.00467372
0.00590037
0.00663954
0.00703696
0.00704648
0.0060016
0.00203815
0.00227366
0.00268265
0.00343197
0.00465899
0.00615786
0.00715968
0.00760472
0.00765709
0.00662801
0.00198768
0.00211433
0.0024824
0.00319877
0.00446696
0.00620743
0.00769153
0.0082945
0.00834653
0.00739215
0.00196893
0.00200056
0.00227382
0.00291873
0.00416534
0.00612539
0.0079612
0.00855092
0.008607
0.00774795
0.00204333
0.0019537
0.00208996
0.00261365
0.00371195
0.00568022
0.00809465
0.00912939
0.00927607
0.00870908
0.00215608
0.00201566
0.00198636
0.00233195
0.00318177
0.00476301
0.00753428
0.00891225
0.00942168
0.00977106
0.00218956
0.00204381
0.00196992
0.00214236
0.00276235
0.00407947
0.00612269
0.00759401
0.00735417
0.00632466
0.00257135
0.00262252
0.0027608
0.00294898
0.00322794
0.00401568
0.00593947
0.00492356
0.00403468
0.00517372
0.00242199
0.00263075
0.00292311
0.00337692
0.00410628
0.0056063
0.00663253
0.00521983
0.00430983
0.00520403
0.00225315
0.00262427
0.00310611
0.00384368
0.00502458
0.00677928
0.00726376
0.00584355
0.00468778
0.00528464
0.00216358
0.00250117
0.00314283
0.00417424
0.00592635
0.00766053
0.00797603
0.00658025
0.00523651
0.00546508
0.00213305
0.00244169
0.00313412
0.00442623
0.00680153
0.00844177
0.00869453
0.00740038
0.00592694
0.00577917
0.00214509
0.00233653
0.00309534
0.00469251
0.00769655
0.00915114
0.00938653
0.00833905
0.00675012
0.00620168
0.00224624
0.00227797
0.0030112
0.0050663
0.00859306
0.00994079
0.0101064
0.00920022
0.00756818
0.00680041
0.00254038
0.00227479
0.00286649
0.00521372
0.00912711
0.0106228
0.0108454
0.0100721
0.00846286
0.00757918
0.00266592
0.00245236
0.00275262
0.00514387
0.00935023
0.0108787
0.0111893
0.0105081
0.00911099
0.00850052
0.00270079
0.00247546
0.00277682
0.00478025
0.00929372
0.0113595
0.0121543
0.0119677
0.0110916
0.0106691
0.00273824
0.00269237
0.00282275
0.00301817
0.00329247
0.00468525
0.00421505
0.00371543
0.00504703
0.0152088
0.00252071
0.00283407
0.00338719
0.00442614
0.00516053
0.00537135
0.00451824
0.00429779
0.00716425
0.0172381
0.00256764
0.0032643
0.00475296
0.00594503
0.00624843
0.00585998
0.00512705
0.00514484
0.0102941
0.0174014
0.00258399
0.0035339
0.00575136
0.00681792
0.00701275
0.00635422
0.00579012
0.00613445
0.0123187
0.0170474
0.00270209
0.00380837
0.00641932
0.00754139
0.00772477
0.00698165
0.00644223
0.00699006
0.0132494
0.0169092
0.00286095
0.00396335
0.00692589
0.00819841
0.00838985
0.00767181
0.00718584
0.00752344
0.0131902
0.0167127
0.00306385
0.00398815
0.00731526
0.008847
0.00908463
0.00841459
0.00784621
0.00787151
0.0128374
0.0163338
0.0033905
0.00388205
0.00744093
0.00939605
0.00972691
0.00927668
0.00864926
0.00837082
0.0121204
0.0155352
0.00370537
0.00394379
0.00748638
0.00992153
0.0104501
0.010115
0.00935279
0.00904263
0.0112024
0.015003
0.00446513
0.00432409
0.00793138
0.0103476
0.0108443
0.0107453
0.0101935
0.00966963
0.0107452
0.013591
0.00293616
0.00297944
0.0031108
0.00314813
0.00335558
0.00369997
0.00369531
0.00571957
0.0171549
0.0198151
0.00300805
0.00365001
0.0039489
0.0040293
0.00431618
0.00439388
0.00473057
0.0102717
0.0177078
0.0177904
0.00405532
0.00507607
0.00529583
0.00525424
0.00518823
0.0051985
0.00746144
0.0149864
0.0167635
0.0119599
0.00481947
0.0060558
0.00629264
0.00612957
0.00604671
0.00666308
0.0116377
0.0149525
0.0142181
0.00875292
0.00562757
0.0068489
0.00711309
0.00704829
0.00711306
0.00876357
0.0133594
0.0146356
0.011607
0.00746259
0.00620613
0.00753499
0.00784228
0.00784558
0.00812675
0.0104285
0.0137896
0.0141236
0.0100522
0.00715143
0.00654093
0.00798085
0.00845831
0.00860731
0.00909855
0.011605
0.0138681
0.0137039
0.00943693
0.00724215
0.0068023
0.00842348
0.00906909
0.00929486
0.00984802
0.0121745
0.0139355
0.0136667
0.00953212
0.0075629
0.00686074
0.00851511
0.00947413
0.00992654
0.0105117
0.0125938
0.0141107
0.0137908
0.00981775
0.00791413
0.00714507
0.00875042
0.00998538
0.0104888
0.0110551
0.0126287
0.0141376
0.0141605
0.0106345
0.00869725
0.00387145
0.00390336
0.003737
0.00360668
0.00382808
0.00448294
0.00865121
0.0179998
0.0191339
0.019111
0.00405944
0.00422222
0.00407443
0.00411172
0.00471956
0.00654959
0.0147314
0.01833
0.0184456
0.017142
0.00477889
0.00497895
0.00488957
0.0051169
0.00624291
0.0114246
0.0170626
0.0178737
0.0155342
0.0116219
0.00580372
0.00594873
0.00592548
0.00641411
0.00917262
0.0150401
0.0169101
0.0159871
0.0108538
0.00867924
0.00655561
0.00676669
0.00691004
0.00802683
0.0123687
0.0158597
0.0163097
0.0126722
0.0087348
0.00733998
0.00746144
0.00773511
0.00806461
0.00975588
0.0141711
0.0158327
0.0149672
0.0101879
0.00759292
0.00663703
0.00795871
0.00830381
0.00889258
0.011205
0.0148743
0.0157534
0.0139971
0.00894729
0.00700003
0.0063265
0.00857805
0.00913714
0.00994842
0.0123878
0.0151284
0.0155875
0.0127001
0.00820277
0.00667342
0.00622484
0.00891604
0.00948481
0.0103287
0.0128081
0.0152511
0.015662
0.0127183
0.0082231
0.00665199
0.0061866
0.00916131
0.00998893
0.0110972
0.0134213
0.015462
0.0159378
0.0133729
0.00857329
0.00674776
0.00623555
0.00471877
0.00461621
0.00441795
0.00449228
0.00495479
0.00650154
0.0145922
0.0165018
0.0159996
0.0165322
0.00463622
0.00475554
0.00462517
0.00490929
0.00603872
0.00935538
0.0161445
0.0170069
0.0169952
0.017723
0.00496064
0.0051437
0.00514562
0.00577287
0.00778104
0.0140946
0.017059
0.0173442
0.0173703
0.0175867
0.00593505
0.00603424
0.0060926
0.00715816
0.0111632
0.0162145
0.0173232
0.0173401
0.0170272
0.015935
0.006791
0.00675642
0.00711429
0.00924638
0.0147027
0.0171355
0.0174816
0.0171044
0.0158956
0.0125888
0.00792056
0.00798204
0.00874701
0.0118457
0.0163166
0.0174031
0.0174291
0.0162499
0.0134999
0.010403
0.00858581
0.00860482
0.00987339
0.0142197
0.0171306
0.0176251
0.0172721
0.0153075
0.0120844
0.0095346
0.00915611
0.00969895
0.0115578
0.0158089
0.0175087
0.0177291
0.0168524
0.0143528
0.0111507
0.0086901
0.00954661
0.0101038
0.012167
0.0164367
0.0178223
0.0179612
0.0168805
0.0140938
0.0105504
0.00847057
0.00978224
0.0107083
0.0132984
0.0172272
0.0180482
0.0181671
0.0172686
0.014568
0.0104892
0.00786497
0.00577953
0.00592557
0.0060235
0.0066099
0.00706333
0.00963035
0.0123984
0.0116246
0.0115151
0.0122591
0.00607267
0.00636916
0.00661186
0.00743262
0.00832436
0.010909
0.0129352
0.0123435
0.0120616
0.0124039
0.00715921
0.00713228
0.0076008
0.00868763
0.010142
0.0126064
0.01368
0.0128012
0.0125347
0.0127877
0.00890502
0.00861934
0.00931308
0.0106184
0.0124995
0.013765
0.0141107
0.0130894
0.013016
0.0131342
0.0109801
0.0103018
0.0111317
0.012831
0.0140925
0.0145617
0.0140911
0.0132763
0.0132347
0.0134029
0.0127389
0.0120884
0.0128437
0.0142553
0.0150491
0.0148146
0.014092
0.0135389
0.0136734
0.0138035
0.0135704
0.0129681
0.0136809
0.0152008
0.0156994
0.0150714
0.0141685
0.0139452
0.0140156
0.0147253
0.0147479
0.0142706
0.0149019
0.0162667
0.0164101
0.0155499
0.0145081
0.0144965
0.014781
0.0150932
0.0149442
0.0147379
0.0153067
0.0168493
0.0172278
0.0166424
0.0151569
0.0147884
0.0150051
0.0156765
0.0153801
0.0154779
0.0161197
0.0176711
0.0182563
0.0181075
0.0172195
0.015688
0.0155466
0.0154944
0.0120421
0.0141009
0.0147454
0.0154874
0.0158111
0.0159662
0.0134469
0.0123541
0.0124614
0.0127905
0.0138141
0.0138101
0.014768
0.0157531
0.0164875
0.0173194
0.0173794
0.015849
0.0150164
0.0146368
0.0145032
0.0144121
0.0148911
0.0158339
0.0165287
0.0170008
0.0183401
0.018703
0.018161
0.0165518
0.01468
0.014556
0.0147999
0.0157535
0.0163616
0.0167101
0.0174651
0.0193415
0.0194376
0.0186254
0.0137355
0.0135091
0.0139127
0.0151042
0.0160422
0.0165821
0.0169851
0.0184759
0.019506
0.0185301
0.0124479
0.0128107
0.0136365
0.0149294
0.0157587
0.0163736
0.0167336
0.0177291
0.0193162
0.01726
0.012044
0.0126606
0.0136137
0.0149245
0.015667
0.0163435
0.0166664
0.0172431
0.0188557
0.0167092
0.0119147
0.0128189
0.0139073
0.015102
0.0156547
0.0165276
0.0168969
0.0172742
0.018551
0.0167244
0.0119473
0.0132179
0.0142894
0.0153134
0.0160623
0.0176369
0.0179129
0.0177738
0.0183679
0.0167603
0.012714
0.0141776
0.0151808
0.0161186
0.0183098
0.0205838
0.0205987
0.0196922
0.0187644
0.0159449
0.0128563
0.012725
0.0122733
0.0121215
0.012107
0.0121933
0.0124705
0.0128443
0.013033
0.0136863
0.0120962
0.0115212
0.0113602
0.0113449
0.0114057
0.0117032
0.0121024
0.012473
0.0127023
0.0131519
0.011415
0.0109194
0.0106799
0.0107065
0.0110025
0.0115347
0.0119821
0.0123844
0.0125955
0.0130455
0.0102126
0.0098384
0.00990633
0.0103217
0.0109144
0.0115309
0.0120363
0.0124766
0.0126434
0.0130312
0.00928406
0.00932945
0.00964211
0.0103134
0.0111027
0.012047
0.0127498
0.0130811
0.0130834
0.0132426
0.00884403
0.00911298
0.00968581
0.0108948
0.0123362
0.0137363
0.014501
0.0144255
0.0139487
0.0138785
0.00867756
0.00929343
0.0105585
0.0127715
0.015014
0.0162725
0.0163428
0.0160243
0.0149828
0.014342
0.00911303
0.0104533
0.0130204
0.0161868
0.01723
0.0173352
0.0170646
0.016565
0.0154933
0.0148296
0.0104797
0.0125658
0.016084
0.0178706
0.0178376
0.017613
0.0170277
0.0161747
0.0152066
0.0149649
0.0112449
0.0142687
0.0174197
0.0184958
0.0179231
0.0173028
0.0162934
0.0156981
0.0149253
0.0133721
0.0113852
0.0119775
0.0123069
0.0124959
0.0125972
0.0126446
0.0126572
0.0126086
0.0122823
0.0097477
0.0111476
0.0118305
0.0122068
0.012419
0.0124662
0.0124514
0.0124191
0.0123217
0.0118348
0.0103172
0.0111003
0.0118327
0.0122185
0.0124323
0.012453
0.0124092
0.0123025
0.0120534
0.0111611
0.00996021
0.0111048
0.0119681
0.0123535
0.0125773
0.0125511
0.012431
0.0121212
0.0113569
0.00947086
0.00809418
0.0113496
0.0122335
0.0125742
0.0128488
0.0128107
0.0124644
0.011435
0.00904022
0.00693601
0.00602378
0.0116265
0.0124638
0.0128149
0.0132465
0.0131992
0.0121668
0.00920582
0.00695029
0.00584998
0.00537903
0.0118895
0.012728
0.0132147
0.013938
0.0134604
0.0106582
0.00772085
0.00626067
0.00552406
0.00518298
0.0120935
0.0129755
0.0135805
0.01444
0.0133232
0.00922708
0.00718015
0.00606595
0.00548663
0.00518655
0.0121747
0.013097
0.0137405
0.0145369
0.0123912
0.0085725
0.00709356
0.00647719
0.00620722
0.00601795
0.0121951
0.0131324
0.0135527
0.013936
0.0114801
0.00822994
0.00716181
0.00672429
0.00655926
0.00647562
0.0103914
0.0107414
0.0109041
0.0109229
0.0108631
0.0106969
0.00996919
0.0087408
0.00886512
0.00892194
0.00995199
0.0103148
0.0104839
0.0105852
0.0105204
0.0102779
0.00937261
0.00847287
0.00881164
0.00869934
0.00974625
0.0100965
0.0102233
0.0103018
0.0102174
0.00990461
0.00902937
0.00819763
0.00872288
0.00875038
0.00954506
0.0098428
0.00994753
0.0100974
0.010026
0.00963378
0.00864237
0.00784052
0.00827622
0.00863283
0.0094453
0.00958817
0.00966299
0.00990936
0.00979481
0.00916367
0.00807119
0.00755647
0.00766754
0.00810607
0.00930543
0.00930065
0.00942976
0.00983053
0.00962959
0.00852429
0.00760131
0.00721184
0.00713733
0.00723685
0.00908104
0.00893409
0.00913504
0.00969689
0.00920078
0.00800069
0.00725907
0.00684545
0.0066674
0.00653799
0.00885586
0.00861851
0.00892148
0.00948503
0.00888817
0.00768351
0.00695166
0.00646541
0.00615765
0.00593897
0.00861615
0.00829044
0.00858583
0.00914254
0.00867219
0.00731107
0.00669307
0.00625955
0.00598051
0.00563844
0.00847594
0.00804946
0.00845126
0.00892502
0.00829021
0.00708342
0.00641485
0.00593905
0.0055668
0.00506111
0.00845022
0.00922829
0.00955445
0.00946958
0.00919407
0.00926409
0.00948243
0.0111321
0.0119795
0.00875744
0.00825634
0.00903289
0.00927497
0.00932647
0.00906905
0.00901039
0.00919164
0.0098279
0.0120593
0.011368
0.00810459
0.00886077
0.00913856
0.00908024
0.0088776
0.00867632
0.00879811
0.00919313
0.0110616
0.012072
0.00798429
0.00879387
0.00894853
0.00893188
0.00871779
0.0083725
0.00846605
0.00880627
0.0101082
0.0119535
0.00795571
0.00876796
0.00883691
0.00874516
0.00840392
0.00802995
0.00811842
0.00847977
0.00986623
0.0118437
0.00838545
0.00875439
0.00871141
0.0085283
0.00809527
0.00770847
0.00779705
0.00821683
0.0100848
0.0107813
0.00860124
0.00866544
0.00858621
0.00823872
0.00766392
0.00731764
0.00742772
0.00800582
0.0101122
0.00853372
0.00866568
0.00862641
0.00841554
0.00780661
0.00724148
0.00693326
0.00705471
0.0076718
0.00997343
0.00908218
0.00867434
0.00856999
0.00814285
0.00733424
0.00674633
0.00647905
0.00659486
0.00700842
0.00909895
0.00945574
0.00877199
0.00846214
0.00765192
0.00679471
0.00626907
0.00606396
0.00616685
0.00649131
0.00796716
0.00777787
0.0068803
0.00826545
0.0105245
0.0112252
0.0116464
0.0116659
0.0104232
0.0100427
0.0101422
0.00909174
0.00673016
0.00769751
0.00884804
0.00939978
0.0102565
0.0113966
0.0114098
0.00925777
0.00893209
0.00860213
0.00667834
0.00732208
0.00840276
0.00896681
0.00918426
0.00998322
0.0117863
0.0110258
0.00872769
0.0083118
0.00635386
0.0070037
0.00820226
0.0089048
0.00906686
0.00911683
0.00989368
0.0137914
0.00917412
0.00840002
0.00624078
0.00689264
0.00813113
0.00890673
0.0090863
0.00906442
0.00921171
0.0117972
0.011302
0.00881766
0.00619001
0.00712177
0.00849342
0.00921268
0.00928158
0.0092039
0.00915479
0.00979125
0.0119117
0.0101383
0.00647757
0.00780321
0.00900429
0.00948261
0.00950316
0.00936481
0.00918418
0.00934638
0.0115657
0.0103337
0.00744364
0.00872605
0.00981495
0.0101113
0.0100356
0.00969447
0.00932221
0.0093285
0.0109937
0.0111033
0.00886555
0.0100455
0.0106872
0.0106328
0.0103131
0.0097884
0.00938035
0.0093253
0.0100712
0.010548
0.0104122
0.0112568
0.0112201
0.0108936
0.0102077
0.0095686
0.00927678
0.00921138
0.00915718
0.00872987
0.00538208
0.00483592
0.004718
0.00486712
0.00492881
0.00502449
0.00512596
0.00508857
0.00507343
0.00538333
0.00527346
0.00491763
0.00504949
0.00551051
0.00567416
0.00567638
0.00561065
0.00562486
0.005832
0.00626771
0.00526273
0.0053337
0.00617188
0.00642459
0.00642366
0.00639934
0.00661833
0.0072446
0.00853162
0.00958038
0.00566541
0.00654875
0.00723233
0.00737967
0.00742318
0.00763785
0.00823369
0.00914983
0.00976478
0.00998409
0.00645335
0.0075276
0.00797354
0.00812193
0.00823212
0.00852698
0.00910194
0.00954058
0.00963081
0.00896628
0.0066033
0.00765257
0.00834802
0.00854529
0.00864687
0.00894279
0.00931346
0.00949165
0.00925294
0.00871269
0.00682856
0.00736477
0.00836818
0.00871187
0.00883079
0.0089686
0.00926278
0.00936618
0.00916802
0.0086084
0.0070798
0.00716862
0.00801201
0.00868454
0.00890949
0.008958
0.00911221
0.00926868
0.00913671
0.00859267
0.00699302
0.00722245
0.0075469
0.00827343
0.00882545
0.00895713
0.00897839
0.0090749
0.00903151
0.00878183
0.00680481
0.00738763
0.00760434
0.00801829
0.00852892
0.00881068
0.00905607
0.00917463
0.0090509
0.00883892
0.00408037
0.00384427
0.00376859
0.00381592
0.00411658
0.00472232
0.00539657
0.00587358
0.00636734
0.00660157
0.00418015
0.00397217
0.0038346
0.00386616
0.00412745
0.00478977
0.00568172
0.00632441
0.00649576
0.00642383
0.00424338
0.00408412
0.00392939
0.00393618
0.00414449
0.00481026
0.00585324
0.00651453
0.00672064
0.00687221
0.00434046
0.00414667
0.00400249
0.00399457
0.00416678
0.00478291
0.00591526
0.00678737
0.00709663
0.0073417
0.00458574
0.00426202
0.00412324
0.00406706
0.00421841
0.00477118
0.00591887
0.00691571
0.00720484
0.00742166
0.00482796
0.00452455
0.0042952
0.00417353
0.00426461
0.00474441
0.0058372
0.00696423
0.00721709
0.00739603
0.00486845
0.00462439
0.00443641
0.00428934
0.00433167
0.00468579
0.0055416
0.00690249
0.00719961
0.00739944
0.00484514
0.00462682
0.00447357
0.00443634
0.00443922
0.00467227
0.00517198
0.00657827
0.0070814
0.00732704
0.00482561
0.00469322
0.00459278
0.00461705
0.004659
0.00477206
0.00503433
0.00568185
0.00651731
0.00705904
0.00480004
0.00474517
0.00493263
0.00502218
0.00522475
0.00546863
0.00546868
0.00559405
0.00598445
0.00639474
0.0045244
0.00441546
0.00424845
0.00398661
0.00367753
0.00354056
0.00351948
0.00351077
0.00361925
0.00364021
0.00447021
0.0043742
0.00435725
0.00420035
0.00392769
0.00360952
0.00343788
0.00347802
0.00345403
0.00336935
0.00423941
0.00423593
0.00428431
0.00424146
0.00410519
0.00379575
0.00340987
0.00336741
0.00333227
0.00326225
0.00392535
0.00399067
0.00400379
0.00408498
0.0040712
0.00396326
0.00344949
0.00334205
0.00328088
0.00318195
0.00367274
0.00367697
0.00380526
0.00373835
0.00377342
0.00388891
0.00364882
0.00335693
0.00326556
0.00316562
0.00363699
0.00349292
0.00352712
0.00364872
0.00354387
0.00348545
0.00362642
0.00346395
0.00328865
0.00319342
0.00356639
0.00345661
0.00343573
0.00347569
0.00342948
0.00332527
0.00329333
0.00341067
0.00331861
0.00318402
0.0034917
0.00333447
0.00298935
0.00284111
0.00280473
0.00283672
0.00292814
0.00323677
0.00330963
0.003232
0.0030522
0.00286223
0.00277006
0.00273548
0.00274468
0.00276081
0.00301183
0.00336661
0.0040627
0.0036986
0.00272614
0.00267451
0.00265166
0.00267598
0.00275715
0.00277131
0.0030433
0.00434877
0.00496318
0.0037337
0.0014091
0.00143977
0.00153446
0.00164781
0.00168835
0.00172202
0.00173371
0.00173148
0.00167854
0.00166752
0.00139513
0.0014382
0.00150486
0.0015589
0.00165556
0.00172249
0.00175174
0.0017832
0.00178924
0.00184334
0.0013946
0.00140461
0.00142504
0.00143025
0.00149958
0.00165778
0.00170244
0.00172309
0.00175876
0.00177073
0.00145327
0.00143621
0.00143168
0.00142848
0.00143286
0.00144354
0.00154759
0.00156453
0.00152502
0.00151667
0.0014827
0.00148019
0.0014754
0.00146664
0.00145883
0.00144836
0.00145408
0.00149241
0.00152835
0.00149906
0.00149244
0.00148496
0.00147759
0.00147057
0.00146542
0.00146263
0.00145723
0.00145937
0.00146919
0.00145454
0.00145982
0.0014692
0.00147207
0.00146946
0.00146346
0.00146136
0.00145842
0.00145456
0.00145118
0.00143346
0.00148507
0.00145883
0.00145714
0.00145912
0.00145661
0.00145567
0.00145368
0.00144387
0.00143347
0.0014346
0.00150587
0.00144285
0.00144403
0.00144272
0.00143996
0.00144029
0.00143971
0.00144274
0.00147154
0.00145526
0.001531
0.00145502
0.00144708
0.00144337
0.00143804
0.00143538
0.00144306
0.00148517
0.00150696
0.00150874
0.00119024
0.00116666
0.00115806
0.00116067
0.0011695
0.00123274
0.00131721
0.00135005
0.00139888
0.00138034
0.0012206
0.0012515
0.00125389
0.00126138
0.00127442
0.00135487
0.00134782
0.00138196
0.0013931
0.00131078
0.00124043
0.00128335
0.0013006
0.00133055
0.00134145
0.00134948
0.00140208
0.00142073
0.00138989
0.00129268
0.00125261
0.00129454
0.00130217
0.00132126
0.0013513
0.00139979
0.00144013
0.00144282
0.00140919
0.00133441
0.00125907
0.0012697
0.00127276
0.0013004
0.00133819
0.00137955
0.0014693
0.00150516
0.00147823
0.00141766
0.00127825
0.0012747
0.0012728
0.00127891
0.00130739
0.00133897
0.00137463
0.00149963
0.00154265
0.00151456
0.00140932
0.00138139
0.00131371
0.00128992
0.00129852
0.00132148
0.00133868
0.00138743
0.00153384
0.00152771
0.00147113
0.00146108
0.00142528
0.00135361
0.00131566
0.00132455
0.0013411
0.00139454
0.00156661
0.00153495
0.00142631
0.00143981
0.00142987
0.00139524
0.00136221
0.00134779
0.00135358
0.00156247
0.00156911
0.00147457
0.00142733
0.00140375
0.00141887
0.0013905
0.00136612
0.00135843
0.00157211
0.00156037
0.00144238
0.00135041
0.00120465
0.00120952
0.00120799
0.00132025
0.00139015
0.00141551
0.00144258
0.00145185
0.00144747
0.00146838
0.00121952
0.00122987
0.0012768
0.00138328
0.0014051
0.00139546
0.00137187
0.00134688
0.00133309
0.0013601
0.0013047
0.00133924
0.00139822
0.00140857
0.00141301
0.00141785
0.00138477
0.00134883
0.00133442
0.00133542
0.00143748
0.00146696
0.00147641
0.00147411
0.00147014
0.00145658
0.00143698
0.00141681
0.00137672
0.00133596
0.00145616
0.00149712
0.00151114
0.00152381
0.00152791
0.00150937
0.00147654
0.00144067
0.00139259
0.00134254
0.00142846
0.00151719
0.00153292
0.00153688
0.00153828
0.00153324
0.00150827
0.00146824
0.00140746
0.00136684
0.00148224
0.00151608
0.00153789
0.00153428
0.00153529
0.0015373
0.00153248
0.00151326
0.00148603
0.00143955
0.0015358
0.00154215
0.00155243
0.00154269
0.00154574
0.00156469
0.00158682
0.00158501
0.00153615
0.00145621
0.00157916
0.0015749
0.00154963
0.00154158
0.00155711
0.00160016
0.00161065
0.00157962
0.00149727
0.00140429
0.00157521
0.00156231
0.00153852
0.00153042
0.00154739
0.00157756
0.00156532
0.00151191
0.00141559
0.0013512
0.00518085
0.00517776
0.00516845
0.00518762
0.005222
0.00519817
0.00516948
0.00517295
0.00519547
0.00529797
0.00515945
0.00520944
0.00519768
0.00515087
0.00512825
0.00510923
0.00507773
0.00505138
0.00506761
0.00510816
0.00499425
0.00513341
0.00519962
0.00520495
0.00517002
0.00511418
0.00506819
0.00502109
0.00499751
0.00501268
0.00482832
0.00497979
0.00512675
0.00520105
0.00522175
0.0051959
0.00511792
0.00503926
0.00500107
0.00498858
0.00477621
0.00486229
0.00502567
0.00516183
0.00523904
0.00525251
0.00522993
0.00513963
0.00504165
0.00499085
0.00479136
0.00483722
0.00497334
0.00514426
0.00526547
0.00531531
0.00531129
0.00526913
0.00514856
0.0050327
0.00489123
0.00491986
0.00503298
0.00518391
0.00529195
0.00535902
0.00538811
0.00536367
0.00527292
0.00513417
0.00506982
0.00510496
0.00520547
0.0053078
0.00538069
0.00543669
0.00545257
0.00543098
0.00536083
0.00521838
0.00533303
0.00535721
0.00539469
0.00545574
0.00551708
0.00552942
0.00551788
0.00547518
0.00540036
0.00526984
0.00564079
0.00561756
0.00560796
0.0056235
0.00565301
0.00564214
0.00560822
0.00552132
0.00543086
0.00530256
0.00489099
0.00493791
0.00497069
0.005024
0.00506917
0.0050716
0.00506646
0.0050677
0.00509776
0.00520365
0.00486936
0.00495463
0.00498408
0.00497085
0.00495951
0.00496026
0.00495437
0.004955
0.0049631
0.004989
0.0046967
0.00487113
0.00497731
0.00501282
0.00500275
0.00496616
0.00494021
0.00491507
0.00491341
0.00491296
0.00452558
0.0047043
0.00488271
0.00499926
0.00504622
0.00504009
0.00500119
0.00494285
0.00491811
0.0049054
0.00448598
0.00456355
0.00474601
0.00493158
0.00505695
0.00510012
0.00510055
0.00506965
0.00498811
0.00492979
0.00451702
0.00455179
0.00467824
0.00487956
0.0050532
0.00516241
0.00519141
0.00518613
0.0051457
0.00504217
0.00462308
0.00464347
0.00473228
0.00490657
0.0050754
0.00521151
0.00527892
0.00529273
0.00527422
0.00519076
0.00480227
0.0048178
0.00489557
0.00503902
0.00517017
0.00527552
0.00534133
0.00536296
0.0053535
0.00529012
0.00501773
0.00502552
0.00506867
0.00515951
0.00527478
0.00536096
0.00540154
0.00540876
0.00539325
0.00533094
0.00532721
0.00530646
0.00531416
0.00533476
0.00540552
0.00547922
0.00548422
0.00546534
0.00542093
0.00532394
0.0046061
0.0046785
0.00472295
0.0047957
0.00486341
0.00489191
0.0049061
0.00492914
0.00496388
0.00508978
0.0046027
0.00469587
0.00473106
0.00474246
0.00475956
0.00478213
0.00480053
0.00481779
0.0048567
0.00487255
0.0044653
0.00463624
0.00474592
0.00479947
0.00479814
0.00478726
0.00478764
0.00479243
0.00480955
0.00481916
0.00429302
0.00449374
0.0046747
0.00478808
0.00486056
0.00487327
0.0048642
0.00483849
0.00482685
0.00482784
0.00425792
0.00434381
0.00455516
0.00474046
0.00488308
0.00496732
0.00499158
0.00498631
0.00495774
0.00491083
0.00429586
0.00433631
0.0044755
0.00470351
0.00490502
0.00504595
0.00511738
0.00513818
0.00513428
0.00509451
0.00439618
0.00442633
0.00452428
0.00473346
0.00494693
0.00511848
0.00522465
0.0052686
0.00527068
0.00524217
0.00458279
0.00460508
0.00468873
0.0048485
0.00501891
0.00517334
0.00527854
0.00533414
0.00534565
0.0053283
0.00480001
0.00481286
0.00485244
0.00493856
0.00506666
0.00520951
0.00531944
0.00536714
0.00537257
0.00535015
0.00512165
0.00510807
0.00506797
0.0050753
0.00512113
0.00524045
0.00534542
0.00537553
0.00536823
0.0053181
0.00431692
0.00440016
0.00447733
0.00455629
0.00463184
0.00467646
0.00471206
0.00476059
0.00481365
0.00495159
0.0043413
0.00442571
0.00446942
0.00449864
0.00454043
0.00458537
0.00463324
0.00466885
0.00473224
0.00476034
0.004272
0.00441965
0.00451389
0.00455311
0.00457712
0.00459937
0.00463396
0.00466097
0.00470022
0.00472768
0.00412678
0.00433574
0.00450255
0.00463104
0.00468714
0.00471887
0.00473652
0.00474044
0.00474905
0.00476942
0.0040817
0.00421015
0.00442524
0.00462595
0.00478829