/*--------------------------------*- C++ -*----------------------------------*\
  =========                 |
  \\      /  F ield         | OpenFOAM: The Open Source CFD Toolbox
   \\    /   O peration     | Website:  https://openfoam.org
    \\  /    A nd           | Version:  9
     \\/     M anipulation  |
\*---------------------------------------------------------------------------*/
FoamFile
{
    format      ascii;
    class       volScalarField;
    location    "79";
    object      f2.gas;
}
// * * * * * * * * * * * * * * * * * * * * * * * * * * * * * * * * * * * * * //

dimensions      [0 0 0 0 0 0 0];

internalField   nonuniform List<scalar> 
137980
(
0.00065272
0.000700016
0.000813857
0.0010219
0.0012733
0.00142063
0.00144976
0.00145717
0.00148074
0.0014911
0.000621985
0.000652272
0.000729011
0.000899749
0.00116669
0.00138675
0.00143211
0.00142851
0.00142459
0.0014281
0.000607498
0.000623526
0.000667403
0.000776734
0.000951504
0.00124227
0.00142036
0.00143023
0.00136513
0.00130036
0.000552284
0.000561054
0.000583539
0.000662498
0.000788152
0.000963394
0.00118087
0.00134172
0.0013523
0.00123103
0.000492471
0.000499949
0.000516572
0.000563152
0.000642845
0.000758116
0.000891944
0.00103296
0.00112573
0.00111669
0.000436742
0.000440003
0.000448512
0.000475561
0.000525074
0.000596255
0.000684629
0.000772574
0.000827126
0.000858468
0.00041165
0.000410665
0.000414599
0.00042481
0.000452533
0.000499782
0.000560409
0.000623394
0.000660707
0.00069344
0.000403391
0.000399836
0.000401855
0.000405669
0.000418121
0.000453052
0.000505177
0.000551013
0.000569118
0.00058802
0.000404298
0.00039872
0.000399289
0.000402416
0.000407285
0.000429878
0.000481418
0.00051909
0.000525918
0.000529005
0.000422117
0.00040961
0.000409656
0.000411154
0.000413779
0.000427656
0.000465802
0.000491953
0.000505026
0.000514267
0.000570861
0.000646142
0.000760661
0.000950397
0.00119286
0.00135501
0.00142131
0.00146133
0.00152042
0.00159246
0.000561081
0.000598435
0.000680667
0.000855593
0.00114789
0.00135852
0.00141686
0.00144027
0.00148328
0.00153223
0.000535049
0.000575173
0.000637594
0.000751594
0.000967355
0.00128858
0.0014162
0.001426
0.00141248
0.00142972
0.000498966
0.000520504
0.000553314
0.000642437
0.000798075
0.0010091
0.00128447
0.00137815
0.00137707
0.00127665
0.000448143
0.000462259
0.000493182
0.000548619
0.000648508
0.000782782
0.000962187
0.0011601
0.00124068
0.00120331
0.000404392
0.000411044
0.000427304
0.000463217
0.00052737
0.000610637
0.000717481
0.000838259
0.000923976
0.000969504
0.000383461
0.000383041
0.000390713
0.000409986
0.000443541
0.000504552
0.000571302
0.000643208
0.00069308
0.00074002
0.000377912
0.000372305
0.000374382
0.000386041
0.000402047
0.000435519
0.000486805
0.000534858
0.00056582
0.000598112
0.00038432
0.000372528
0.000371059
0.000375663
0.000391788
0.000411336
0.000438808
0.000465826
0.000478474
0.000500223
0.000406386
0.000384702
0.00037846
0.000379409
0.000389825
0.000412531
0.000437193
0.000445714
0.00044792
0.000459059
0.000506912
0.000587521
0.000704909
0.000891927
0.00114387
0.00135249
0.00145391
0.00150156
0.00163418
0.00210003
0.000526596
0.000572081
0.000657323
0.000849182
0.00115116
0.00138143
0.00149138
0.00166077
0.00185991
0.00213623
0.000479443
0.000534077
0.000622629
0.000765427
0.00102125
0.00135591
0.00149161
0.00161724
0.00186513
0.00208804
0.000453025
0.000481794
0.000534979
0.000657372
0.000850515
0.00114896
0.0014269
0.00154254
0.00168251
0.00175606
0.000411536
0.000431371
0.000478747
0.000559495
0.000685974
0.000886172
0.00117451
0.00140521
0.00149461
0.00149607
0.000380169
0.000388574
0.00041406
0.000469793
0.000551149
0.00067624
0.000850672
0.00106714
0.00120663
0.0012659
0.00036388
0.000363433
0.000374729
0.00040408
0.000455708
0.000534993
0.000637282
0.000760101
0.000863006
0.000950805
0.000359552
0.000353147
0.000356415
0.000366009
0.000399765
0.00044676
0.000508446
0.000574828
0.000626428
0.0006916
0.000360227
0.000353656
0.000351875
0.000356876
0.00036594
0.000400237
0.000440882
0.000473704
0.000491909
0.000523153
0.000371101
0.000359458
0.000356602
0.00036054
0.000365958
0.00037754
0.000401732
0.000424567
0.000438204
0.000452418
0.000482971
0.000553351
0.000647835
0.000810217
0.00106833
0.00132557
0.00144732
0.00137853
0.00152232
0.00181426
0.000507756
0.000553163
0.000632241
0.000822044
0.00112604
0.00143019
0.00157467
0.00162021
0.00171794
0.00206462
0.00045591
0.000515798
0.000614562
0.000779867
0.00105825
0.00144587
0.0016926
0.00188112
0.00211158
0.00231325
0.000434255
0.000468025
0.000539156
0.000690748
0.000945283
0.00135114
0.00175717
0.00197887
0.00230333
0.00246382
0.00039144
0.000422839
0.000484306
0.00059303
0.000789033
0.00113653
0.00164531
0.00195633
0.00226818
0.0024469
0.000359477
0.000375526
0.000416553
0.000496231
0.000631586
0.000872248
0.00127748
0.0017787
0.00212483
0.00233936
0.000337943
0.000344363
0.000366109
0.000418711
0.000509131
0.000657594
0.00090063
0.00127695
0.00169404
0.00201326
0.000324521
0.000327454
0.000336395
0.000369962
0.000423198
0.000515317
0.000646045
0.000825026
0.00102715
0.00127749
0.00031645
0.000317933
0.000324066
0.000337196
0.00037516
0.000428286
0.000502813
0.000581319
0.000638899
0.000735825
0.000330646
0.000317957
0.000323846
0.000328677
0.000347929
0.000387439
0.000432885
0.000472338
0.000490437
0.000483054
0.000461277
0.000527711
0.000617621
0.000735368
0.000930634
0.00124233
0.00141776
0.00142363
0.0016486
0.00151381
0.00049138
0.000540088
0.000614553
0.00078402
0.00108513
0.00142264
0.00160716
0.00165865
0.00184105
0.00177055
0.000416581
0.000499341
0.000610361
0.000808072
0.00115651
0.00160958
0.00184001
0.0020139
0.00222457
0.00217329
0.000388729
0.000440768
0.000553267
0.00077343
0.00117644
0.00171129
0.00207791
0.00226802
0.00253873
0.00259848
0.000345772
0.000403486
0.000499455
0.000681402
0.00105789
0.00166644
0.00224645
0.00257619
0.00274329
0.00279708
0.00031559
0.000350676
0.000427949
0.00056135
0.000840923
0.00139297
0.00216694
0.002758
0.00304625
0.00311289
0.000300853
0.000317789
0.000373412
0.000469537
0.000667351
0.00106443
0.00177937
0.00266803
0.00318135
0.00346059
0.000296064
0.000298199
0.00033235
0.000399099
0.000529573
0.00079826
0.00130235
0.00213999
0.00289469
0.00327287
0.000307493
0.000292958
0.000304607
0.000350519
0.000437227
0.00059506
0.000871987
0.00128608
0.0017941
0.00209066
0.000328909
0.0003031
0.000298347
0.000321688
0.000373855
0.0004865
0.000668329
0.000834479
0.000812034
0.000698692
0.000463109
0.000505375
0.000566955
0.000651
0.00078277
0.00104357
0.00148875
0.001702
0.0014235
0.00155316
0.000451455
0.000502731
0.000576042
0.000725883
0.00100383
0.00145003
0.00177181
0.00199631
0.00183526
0.00176297
0.000365294
0.000459207
0.00059804
0.000816012
0.00121285
0.00175589
0.00214941
0.00236857
0.00229876
0.00206411
0.000338553
0.000413636
0.000563673
0.00082523
0.00130436
0.00198618
0.00256014
0.00289644
0.00295417
0.00265812
0.0003221
0.000390175
0.000519149
0.000770213
0.001291
0.00212242
0.00292262
0.00331307
0.00340051
0.00303289
0.000311235
0.000347843
0.000456965
0.000693874
0.00121301
0.0021756
0.00336592
0.00388572
0.00397802
0.00350452
0.000307461
0.00032149
0.000402066
0.00061293
0.001117
0.0021717
0.00361474
0.00413735
0.00423839
0.00382499
0.000328042
0.000309249
0.000352789
0.000520076
0.000959352
0.00197194
0.00363286
0.00472443
0.00494097
0.00476285
0.000366227
0.00032644
0.000323215
0.000430261
0.000749727
0.00152593
0.00312206
0.0045656
0.00519492
0.00595442
0.000382393
0.000336139
0.00031733
0.000370272
0.000580284
0.00118706
0.00231674
0.00354552
0.00351325
0.0030287
0.000488791
0.000495384
0.00051884
0.000584188
0.000702567
0.00109061
0.00231209
0.00186868
0.0014161
0.00384826
0.000417351
0.000484126
0.000584918
0.000750191
0.00108652
0.0020508
0.00284264
0.00213154
0.0016695
0.00380712
0.000367989
0.000473607
0.000643058
0.000945322
0.00160008
0.00294994
0.00333976
0.00251531
0.00191811
0.00371804
0.000348489
0.000446867
0.000664635
0.00113066
0.002199
0.0035938
0.00388179
0.00308055
0.00237779
0.00373226
0.000345229
0.000441008
0.000693499
0.00131589
0.00286309
0.00420984
0.00446701
0.00369965
0.00283984
0.00380311
0.000352998
0.000423703
0.000720034
0.00155874
0.00357968
0.004805
0.00505507
0.00435192
0.00356633
0.00400907
0.000383144
0.000415184
0.000736139
0.00183091
0.00433703
0.00546461
0.00570146
0.00498432
0.00441787
0.00440975
0.000458722
0.000412822
0.000715146
0.00200337
0.00491992
0.00620038
0.0065417
0.00608919
0.005366
0.00509372
0.000536156
0.000468735
0.00068344
0.00204996
0.00520959
0.0065818
0.00706779
0.00694089
0.00631684
0.0061685
0.000593819
0.000494821
0.000710783
0.00196637
0.00519918
0.00720769
0.008697
0.00934368
0.00939313
0.0089884
0.000538981
0.000512617
0.000542907
0.000613028
0.000741193
0.00151292
0.00135553
0.00126801
0.00427269
0.0227345
0.000448978
0.000560468
0.000796259
0.00127577
0.00178921
0.00204269
0.0018835
0.00227216
0.00882412
0.0235941
0.000476254
0.000752062
0.00148374
0.0022668
0.00257066
0.00262053
0.00254105
0.00388035
0.0135309
0.0230694
0.000504764
0.000931343
0.00212804
0.00298821
0.00327281
0.00329353
0.0033824
0.00560642
0.0164521
0.0214071
0.000562884
0.0011037
0.00265499
0.00361426
0.0038877
0.00393051
0.00412443
0.00707869
0.0172858
0.0210711
0.000632872
0.00122786
0.00301954
0.00415681
0.00452137
0.00467068
0.00487261
0.00756446
0.0170651
0.0205412
0.000705184
0.00128949
0.00341
0.00476084
0.00517045
0.00529341
0.00531793
0.00748989
0.016252
0.0197164
0.000811986
0.00122638
0.00347527
0.00521579
0.00579321
0.00599537
0.00596495
0.00742264
0.0146571
0.017934
0.00096373
0.0012404
0.00355332
0.00574013
0.00646793
0.00668883
0.00653019
0.00747587
0.0129081
0.0168548
0.00149411
0.00147526
0.00393755
0.00613686
0.0069148
0.00725819
0.0073134
0.00765787
0.0103566
0.0143913
0.000596096
0.000598036
0.000633585
0.000660001
0.000774589
0.00103617
0.00137675
0.0047453
0.0285626
0.0311908
0.000604255
0.000844013
0.000982472
0.00104432
0.00130191
0.00170926
0.00333357
0.0153132
0.0265579
0.0173483
0.00104676
0.00156247
0.00174776
0.00186697
0.00216274
0.00313972
0.00846723
0.0191986
0.0202308
0.00827787
0.00143163
0.0022253
0.00248661
0.00261126
0.00319647
0.00587837
0.0148622
0.0185134
0.0127239
0.00504571
0.0019732
0.00289764
0.00329052
0.00361328
0.00484767
0.00964594
0.0161709
0.0168698
0.00796752
0.00388321
0.00234109
0.00349011
0.00399463
0.00459687
0.0066328
0.0122455
0.016021
0.0146066
0.00632702
0.00379109
0.00264155
0.00390471
0.00453714
0.00551756
0.00787655
0.0133967
0.0156572
0.0132847
0.00599353
0.00398296
0.00283045
0.00430586
0.00518183
0.00628667
0.00884163
0.0136863
0.0151832
0.0125907
0.00617356
0.00454954
0.00286984
0.00437738
0.00543989
0.00680419
0.00934292
0.0136227
0.0149826
0.0126961
0.0065723
0.0050709
0.00303916
0.00456322
0.00596194
0.0074048
0.00960891
0.0133408
0.0147154
0.0133421
0.0077197
0.00615307
0.000856154
0.000830643
0.000826581
0.000868324
0.00120088
0.0025098
0.0106296
0.0268459
0.025678
0.0230832
0.000918278
0.0010298
0.00105504
0.00127897
0.00240036
0.00703049
0.0217094
0.0258199
0.0207252
0.0159463
0.00124011
0.00146371
0.00154416
0.00220289
0.00521877
0.0168411
0.0223074
0.0216682
0.0118773
0.00851585
0.00195101
0.00220343
0.00251252
0.00425015
0.0112589
0.0199015
0.0209876
0.0137144
0.00726123
0.00497599
0.00247196
0.0028115
0.00368625
0.00718684
0.016232
0.0196621
0.0179396
0.00865116
0.005071
0.00369787
0.00334114
0.00389339
0.00548982
0.0105487
0.0177062
0.0188891
0.013534
0.00624309
0.00398667
0.00315973
0.0037686
0.00448644
0.00669168
0.0127487
0.0177301
0.0178791
0.011062
0.00512335
0.00348569
0.00300396
0.00437599
0.00542273
0.00807544
0.014247
0.0176252
0.0167657
0.00905263
0.00453705
0.00328531
0.00301756
0.00465906
0.00565056
0.00835126
0.0144143
0.0173516
0.0164975
0.00907018
0.00456595
0.00328459
0.00305141
0.00491641
0.00619175
0.00911089
0.0147365
0.0172181
0.0167226
0.0101179
0.00492981
0.00336434
0.00320136
0.00149684
0.00138343
0.00121055
0.00127616
0.00173732
0.00351402
0.0147882
0.0180989
0.0163828
0.0176539
0.00137556
0.00139205
0.00133341
0.00162882
0.00284071
0.00750458
0.0184385
0.019744
0.0190029
0.0195485
0.00147871
0.00155895
0.00164387
0.00238929
0.00528502
0.0152364
0.0197919
0.0197317
0.0186858
0.0183093
0.00197874
0.00209055
0.0023488
0.00395842
0.010485
0.018815
0.0202721
0.0192058
0.0170946
0.0135096
0.00252822
0.00262205
0.00339701
0.00713252
0.0161142
0.0199169
0.0201088
0.0178628
0.013608
0.00928695
0.00354596
0.00385
0.00561935
0.0111073
0.0186491
0.0202201
0.0192712
0.0151138
0.0103235
0.00690526
0.004165
0.00449548
0.00713795
0.0151255
0.0196966
0.0202011
0.0184068
0.0131093
0.00849258
0.00589494
0.00474217
0.00580108
0.00967721
0.0174374
0.0200541
0.0200978
0.0168785
0.0115732
0.00747321
0.00522864
0.00518988
0.00615014
0.0105995
0.0183411
0.0203867
0.0201809
0.016744
0.0112407
0.00684707
0.0050767
0.00545027
0.00704623
0.012103
0.0192306
0.0206237
0.0203852
0.0176244
0.0120192
0.00688043
0.00471621
0.00208452
0.00210321
0.00212168
0.00249892
0.00301072
0.00518384
0.00894734
0.00789642
0.00817643
0.00876263
0.00230072
0.00235197
0.00252303
0.00313925
0.00401213
0.00665054
0.00952011
0.00880003
0.00875278
0.00902376
0.00301555
0.00290408
0.00328494
0.00423087
0.00594757
0.00904435
0.0104737
0.00936605
0.00918481
0.00955764
0.00461533
0.00429024
0.00480704
0.00623539
0.00921243
0.0107576
0.011088
0.00965393
0.00968261
0.0102746
0.00713414
0.00632713
0.00715392
0.00946474
0.011518
0.0120729
0.0111159
0.00995539
0.0101193
0.0109838
0.00940706
0.00877543
0.00993244
0.0119307
0.0131425
0.0126321
0.0112537
0.0105859
0.0111098
0.0120394
0.0105978
0.00989035
0.0110977
0.0136113
0.0146147
0.0133936
0.0116943
0.0114137
0.0118943
0.0143845
0.0126491
0.0119771
0.0130749
0.0158493
0.0161677
0.0145758
0.0128329
0.012739
0.0136756
0.0150809
0.0128173
0.0125868
0.0136061
0.0168652
0.0179662
0.0170725
0.0144532
0.0141253
0.0145778
0.0165618
0.0132262
0.0136414
0.0147449
0.0178421
0.0195236
0.0194266
0.0183417
0.0160863
0.0168188
0.0163367
0.0100574
0.0124485
0.0131173
0.0141135
0.0145934
0.0144989
0.0108165
0.00904178
0.00907927
0.00917179
0.0113484
0.0113042
0.0122786
0.0138309
0.015189
0.0163421
0.0163959
0.0138155
0.0123288
0.0115246
0.0115547
0.0114178
0.0120259
0.0133996
0.0146758
0.0160962
0.0180563
0.0180434
0.0166283
0.0139017
0.0117768
0.011464
0.0117293
0.0131246
0.0142457
0.015285
0.016988
0.0193879
0.0191724
0.0175467
0.0105593
0.0102132
0.0106857
0.0122036
0.0137837
0.0150416
0.0159825
0.018698
0.0203731
0.0188589
0.00918221
0.00953804
0.0104
0.0120555
0.0133481
0.0144054
0.0153793
0.0178074
0.0209897
0.0182644
0.00868457
0.00933771
0.0103947
0.0120757
0.0131767
0.0141892
0.0150065
0.0166894
0.0211998
0.0185001
0.00845813
0.009507
0.0106912
0.0122439
0.0130625
0.0143377
0.0150427
0.0164267
0.0210938
0.0190576
0.00843715
0.00995791
0.0111862
0.012608
0.0136715
0.016007
0.0163078
0.0169476
0.0207776
0.02038
0.00942334
0.0110598
0.0124088
0.0137641
0.0168291
0.0208938
0.020734
0.0193403
0.0214506
0.0194399
0.0102289
0.0100714
0.00949944
0.00931614
0.00927984
0.00942466
0.00980841
0.0100375
0.0100641
0.0101991
0.00882364
0.00812197
0.00782986
0.00784846
0.00803023
0.00848815
0.0090413
0.0094719
0.00968664
0.0102125
0.0079125
0.00724394
0.00702242
0.00711321
0.00753442
0.00812757
0.00872224
0.00929854
0.00958739
0.0102456
0.00645166
0.00612025
0.0062316
0.00672733
0.00740466
0.00804241
0.00864353
0.00926664
0.0095879
0.0102978
0.00555338
0.00566061
0.00600246
0.00675222
0.00754915
0.00848722
0.00921498
0.00963718
0.00983456
0.0104628
0.00517363
0.00552088
0.00613451
0.00747183
0.00883548
0.0102284
0.0110621
0.0110386
0.0108158
0.0113594
0.00509388
0.00589491
0.00722351
0.00952299
0.0118088
0.0132628
0.0133515
0.0130816
0.0119628
0.0120689
0.00596568
0.00738986
0.00990987
0.0135641
0.0149841
0.0149265
0.0144896
0.0140586
0.0129587
0.0125483
0.0075438
0.00950176
0.0137427
0.0162736
0.0160727
0.0155354
0.014619
0.0139777
0.012814
0.0131585
0.00820088
0.0111747
0.0160907
0.0173761
0.0163612
0.0156304
0.0145975
0.0134212
0.0124594
0.0111737
0.00784573
0.00860935
0.00901943
0.00901503
0.00897303
0.00887725
0.00874857
0.00862651
0.00826257
0.00581355
0.00770518
0.00850531
0.00897233
0.00896639
0.00889088
0.00868329
0.00851043
0.00831742
0.00772982
0.00626552
0.00776371
0.00870159
0.00916599
0.00913276
0.00898366
0.00865844
0.0083668
0.00793517
0.00667012
0.00559635
0.00805911
0.0090031
0.00942068
0.00937438
0.00916303
0.00869387
0.00805557
0.00684878
0.00493967
0.00394171
0.00844379
0.0093581
0.00975443
0.00972945
0.00943311
0.00861091
0.00678756
0.00455688
0.00322547
0.00258924
0.00882872
0.00970354
0.0100879
0.0102492
0.00979004
0.00788554
0.00484841
0.00329882
0.00254094
0.00216921
0.00915223
0.0100003
0.0105156
0.0111124
0.010008
0.00632457
0.00403655
0.00284403
0.00227529
0.00200342
0.00933961
0.0102204
0.0109051
0.0117204
0.00982852
0.00561352
0.00369939
0.00270107
0.00220929
0.00198182
0.00940638
0.0103115
0.0110646
0.0118366
0.00889873
0.0050598
0.00358681
0.00290325
0.00258446
0.00241001
0.00935052
0.0103276
0.0107676
0.0107854
0.00771516
0.00464264
0.00371907
0.00328709
0.00310813
0.00291887
0.00706776
0.00717912
0.00712766
0.0070285
0.00687592
0.00666348
0.00611379
0.00508812
0.00536871
0.00551687
0.00682287
0.00699478
0.00697563
0.00689434
0.00672053
0.00644438
0.00572802
0.00486716
0.00524434
0.00522602
0.00665087
0.00675418
0.00671712
0.00664482
0.00649275
0.00616703
0.00536059
0.00458745
0.00506833
0.00516146
0.00648479
0.00656943
0.00654431
0.00652511
0.00637368
0.00592269
0.00492149
0.00419673
0.00459378
0.00490634
0.00633129
0.00637055
0.00635273
0.00641502
0.00619176
0.00541661
0.00429963
0.00386775
0.00395579
0.00430603
0.00617275
0.00613204
0.00614979
0.00635684
0.00591263
0.00455486
0.00382131
0.00350277
0.00348191
0.00361219
0.00595447
0.00586444
0.00592074
0.00624279
0.00530972
0.0040976
0.00352645
0.00324606
0.00321797
0.00323305
0.00571529
0.00552903
0.00559374
0.00584815
0.00487893
0.00381423
0.00328946
0.00294814
0.00283951
0.00276447
0.00544739
0.00517207
0.00510543
0.00535438
0.00459415
0.00347168
0.00302338
0.00280147
0.0027004
0.002546
0.00520346
0.00481737
0.00483968
0.00504425
0.00410822
0.00327956
0.00282803
0.00260912
0.00243125
0.00205506
0.00439737
0.00511344
0.00557335
0.00557981
0.00563752
0.00594105
0.00625711
0.00771132
0.0083994
0.00531095
0.00397474
0.00493597
0.005407
0.00546936
0.00543718
0.0055591
0.00592097
0.0064883
0.00850508
0.00769436
0.00382782
0.00483982
0.00532809
0.00534381
0.00527934
0.00527042
0.00547392
0.00584259
0.00740533
0.00832937
0.00369672
0.00482887
0.00525901
0.0052733
0.0051636
0.00493494
0.00507654
0.00542459
0.00644872
0.0081713
0.00368096
0.00500992
0.00522845
0.00517665
0.00495593
0.00459036
0.00471632
0.00509787
0.00621088
0.00816333
0.0042171
0.00510891
0.00515581
0.00504463
0.00467894
0.00426841
0.00438054
0.00482041
0.0064509
0.0071481
0.00474725
0.0051377
0.00510073
0.00485018
0.00429279
0.00391689
0.00404293
0.00463988
0.0065649
0.00501116
0.00501951
0.00510594
0.00496877
0.00448157
0.00384952
0.00353473
0.00365612
0.00426796
0.00642225
0.00550508
0.00509802
0.00506954
0.00477566
0.0039829
0.00336363
0.00313764
0.00323341
0.00362076
0.00549521
0.00598967
0.00511046
0.00501171
0.00441638
0.00338192
0.00292201
0.0027849
0.00287036
0.00315605
0.00447505
0.00443559
0.00349
0.00434583
0.00652543
0.00755562
0.00799515
0.00793134
0.00651242
0.00602259
0.00595204
0.00499874
0.00296878
0.00344881
0.00440747
0.00550323
0.00719608
0.00821192
0.00805687
0.00544372
0.00492199
0.00458672
0.00276646
0.00309792
0.00379874
0.00467649
0.00540747
0.00707489
0.00897914
0.00769625
0.00493528
0.00438951
0.00251072
0.00283318
0.00354226
0.00439891
0.00497563
0.00554865
0.00714448
0.0114294
0.00558776
0.00457703
0.00241506
0.00274386
0.00347328
0.00434039
0.00486279
0.00524937
0.00594547
0.00967497
0.00826083
0.00509839
0.00237295
0.00280569
0.00375862
0.00470173
0.00503356
0.00518475
0.00559706
0.00719531
0.0094331
0.00656713
0.0025441
0.00316984
0.00434318
0.00516681
0.00541806
0.00538253
0.00551128
0.00617918
0.00913545
0.00687767
0.00305332
0.00390871
0.00525692
0.0059922
0.00597873
0.00571035
0.00558789
0.00584594
0.00842892
0.00798602
0.003989
0.00522798
0.00653359
0.00669696
0.00646396
0.00599737
0.00564402
0.00574356
0.0067951
0.00793163
0.00548
0.00700384
0.00733361
0.00705768
0.00649915
0.00596048
0.00557658
0.00561486
0.00596258
0.0056113
0.00224577
0.0018798
0.00178972
0.0019408
0.00200459
0.00206038
0.00213437
0.00212898
0.00214961
0.00235036
0.00213827
0.00184873
0.00196358
0.00225307
0.00242314
0.00249469
0.00249377
0.00253942
0.00273132
0.00308356
0.00201165
0.002016
0.00251586
0.00278868
0.00288774
0.00304122
0.00332602
0.00394069
0.00506091
0.00598487
0.00221331
0.00264997
0.00331561
0.00359856
0.00382738
0.00418504
0.00479484
0.00551463
0.00595831
0.0061327
0.00273543
0.00350369
0.00411284
0.00437808
0.00466688
0.00503009
0.00551156
0.00578453
0.00583277
0.00532482
0.00290524
0.00365797
0.00448024
0.00483614
0.00504719
0.00536992
0.00564586
0.00574888
0.00561737
0.00506587
0.00309629
0.00348317
0.00444186
0.00492807
0.00515384
0.00537676
0.00562572
0.00565114
0.00551579
0.00499681
0.00327867
0.00335807
0.00405532
0.00485703
0.0051621
0.00533326
0.00557889
0.00559955
0.00546968
0.00499478
0.00323379
0.00336682
0.00363335
0.00432919
0.00498176
0.00521312
0.00537381
0.0055638
0.00546273
0.00524471
0.00305311
0.00345784
0.00363672
0.00400431
0.00452453
0.00491819
0.00510063
0.0054002
0.0054499
0.00520999
0.00145335
0.00137299
0.00132479
0.00130289
0.00141267
0.00171679
0.0020733
0.00234457
0.00261956
0.00279081
0.00151266
0.00139659
0.00134949
0.00134815
0.00144537
0.00177216
0.0022162
0.00254649
0.00272876
0.00294963
0.00155763
0.00143366
0.00137502
0.00138518
0.00148218
0.00179857
0.00230206
0.00272653
0.00306213
0.00355354
0.00164414
0.00152775
0.00142832
0.0014232
0.00151527
0.00181767
0.00237172
0.0029806
0.00343851
0.00400727
0.00168661
0.00161907
0.00154781
0.00151253
0.00158449
0.00186108
0.00244775
0.0032104
0.00366805
0.00397447
0.00175176
0.0016612
0.0016447
0.00162712
0.00169565
0.00190328
0.00244005
0.00325487
0.00370207
0.00391052
0.00183972
0.00170641
0.0016942
0.00171574
0.00177189
0.00193905
0.00237168
0.0032151
0.00368313
0.00393256
0.00190347
0.00179712
0.00172528
0.0017401
0.0018079
0.00195175
0.00220924
0.00297558
0.00358561
0.00390218
0.00186213
0.00179646
0.00175089
0.00179523
0.00187465
0.00199127
0.00212599
0.00239402
0.00300677
0.0036702
0.00189237
0.00192521
0.00197024
0.00211889
0.00230201
0.00247393
0.0024856
0.00249977
0.00269297
0.0030609
0.0017315
0.00170397
0.001536
0.00130886
0.00122363
0.00119312
0.00120141
0.00121756
0.00120576
0.00116929
0.00167497
0.00172352
0.00163783
0.00148978
0.00137499
0.00125922
0.0011306
0.00111046
0.00102054
0.000981157
0.00158974
0.00166677
0.00161859
0.0015002
0.0013903
0.00129543
0.00108988
0.00103903
0.000986008
0.0009701
0.00133483
0.00147812
0.00151701
0.00145106
0.00132586
0.00127696
0.00110883
0.00104443
0.00098769
0.000973541
0.00128047
0.00126181
0.00132929
0.00133922
0.00130024
0.00126151
0.00119598
0.0010681
0.000997169
0.000998969
0.00128099
0.00118801
0.00118839
0.00119659
0.00125627
0.00124116
0.00122438
0.00115154
0.00103687
0.00101189
0.00126197
0.00116799
0.00115695
0.00115726
0.00113137
0.00111991
0.00110584
0.0011346
0.00107276
0.00102602
0.00122325
0.00111514
0.000994032
0.000923884
0.000908742
0.000906717
0.000967
0.0010858
0.00104854
0.00101373
0.00104381
0.000940433
0.00089581
0.000882211
0.000903393
0.000911793
0.000984702
0.0010552
0.00110917
0.00107393
0.000876268
0.000848965
0.000836325
0.000844445
0.000890445
0.000938501
0.000963898
0.00116151
0.00132442
0.001038
0.000361505
0.000367146
0.000387261
0.000407407
0.000419065
0.000432448
0.00043825
0.00044116
0.000438287
0.000433763
0.00036098
0.00036855
0.000380474
0.000384185
0.000398886
0.00042647
0.000439326
0.000448709
0.000460692
0.000465817
0.000346623
0.000353314
0.000359051
0.00035468
0.000359351
0.000379777
0.000414433
0.000429582
0.000438393
0.000441807
0.000347627
0.000347991
0.000349077
0.00034855
0.000348397
0.000351436
0.000370076
0.000377302
0.000379457
0.000374514
0.000364571
0.000357671
0.000352674
0.000349979
0.000348731
0.000349499
0.000354205
0.00036289
0.00036166
0.000356549
0.000371278
0.0003681
0.000364359
0.000359877
0.000355528
0.000351721
0.000352776
0.000356125
0.000356749
0.000356109
0.000367126
0.000366426
0.000365024
0.000362486
0.000360365
0.00035733
0.000355006
0.000355759
0.00035608
0.000356017
0.000349647
0.00035503
0.000360901
0.000361331
0.000360392
0.000358427
0.000356627
0.000356369
0.000354646
0.000352609
0.000345597
0.000355299
0.00035925
0.000359984
0.000359537
0.000358003
0.000356526
0.000350924
0.000341636
0.000347328
0.000343093
0.00035364
0.000355631
0.000355817
0.000355657
0.000354854
0.00035282
0.00035183
0.000363799
0.000373135
0.000353752
0.000359777
0.000374635
0.000381408
0.000409014
0.000421857
0.000387105
0.00033486
0.000318011
0.000330805
0.000361672
0.000362844
0.000370489
0.000371847
0.000381938
0.000344518
0.000307441
0.000292033
0.00029239
0.000323983
0.000358564
0.000345678
0.000332123
0.00032051
0.000308844
0.000295976
0.000287941
0.000282483
0.000284124
0.000329154
0.000334306
0.000338478
0.000327704
0.000316473
0.000305355
0.000297183
0.000288001
0.000282558
0.000282471
0.000305094
0.000288345
0.000293758
0.000309247
0.000320025
0.000322834
0.000324961
0.000311933
0.000295612
0.000284228
0.000283406
0.000312499
0.000311849
0.000312355
0.000316847
0.000325611
0.000336858
0.000338298
0.000324626
0.000302863
0.000284545
0.000336181
0.000336993
0.000334105
0.000327139
0.000328999
0.000337087
0.000344817
0.000343024
0.000321107
0.000309251
0.000334979
0.000336208
0.000335063
0.000332551
0.000333405
0.000338577
0.00034875
0.000347315
0.000324736
0.000316611
0.000339147
0.000341168
0.000335656
0.000334573
0.000336059
0.000344435
0.000351278
0.00033111
0.000319913
0.00032254
0.000321884
0.000340792
0.000338293
0.000339268
0.000342968
0.00034888
0.000326273
0.000318166
0.000332708
0.000355391
0.000350874
0.000390379
0.000496858
0.000492247
0.000519073
0.000649656
0.000734423
0.000747582
0.000741654
0.000718323
0.000407767
0.000402945
0.000386959
0.000337369
0.000347322
0.000419892
0.000471396
0.000475688
0.000457195
0.000436006
0.000388285
0.000338002
0.000288577
0.000280369
0.000287892
0.000315118
0.000335808
0.00033619
0.000324521
0.000312656
0.000345829
0.00029231
0.000273995
0.000271686
0.000276978
0.000288036
0.000294583
0.000293865
0.000282722
0.000265725
0.000349119
0.000295806
0.000280464
0.000278425
0.000283455
0.000290044
0.000290973
0.000287904
0.00027447
0.000253983
0.000380551
0.000311038
0.000287709
0.000284179
0.000287479
0.000299941
0.000303337
0.000301121
0.000286183
0.000261609
0.00039782
0.000342359
0.000293309
0.000287711
0.0002909
0.000305837
0.000311595
0.000312117
0.000304803
0.000283155
0.000410607
0.000349807
0.000300481
0.00029409
0.000299406
0.000321979
0.000338378
0.000342318
0.000333912
0.000307039
0.000410608
0.000349436
0.000301198
0.000294441
0.000302051
0.000330021
0.00034726
0.000350144
0.000340241
0.000314152
0.000401935
0.000348725
0.000298605
0.000291246
0.000299443
0.000323846
0.000336754
0.00033525
0.000314686
0.000293723
0.0019825
0.00178214
0.00164157
0.0015911
0.00157373
0.00153553
0.00146826
0.00143814
0.00143846
0.00149116
0.00198843
0.00182311
0.00164428
0.00152261
0.00144767
0.00138941
0.00134168
0.00132633
0.00132737
0.00132998
0.00195875
0.00188963
0.00172314
0.00155511
0.00144876
0.00136878
0.00130764
0.00126576
0.00126
0.00126066
0.00188161
0.00185944
0.00179457
0.00165644
0.00150298
0.0013935
0.00131733
0.00126526
0.00123807
0.00123502
0.00181459
0.00180934
0.00178338
0.00172228
0.00161023
0.0014828
0.00137287
0.00129127
0.00124681
0.00123265
0.00180179
0.00178473
0.00176949
0.00173707
0.00167235
0.00157496
0.0014748
0.00137176
0.00128535
0.00124735
0.00184215
0.00179397
0.00176865
0.0017435
0.00171175
0.00164231
0.00155167
0.00146147
0.00136601
0.00129221
0.00193031
0.00184127
0.00178883
0.00175068
0.00172363
0.0016673
0.00158961
0.00150539
0.00142313
0.00134026
0.00203091
0.00190835
0.00181565
0.00175285
0.00171631
0.001657
0.00158726
0.00150619
0.00144056
0.00137335
0.00219011
0.00201469
0.00188873
0.00179445
0.00172024
0.00165155
0.00157938
0.0015069
0.00145296
0.00139954
0.00186999
0.00175704
0.00162033
0.0015671
0.0015576
0.00152982
0.00146065
0.00143128
0.00142924
0.00145803
0.00184207
0.00177816
0.00161354
0.00148846
0.00141857
0.00136957
0.00132302
0.00130303
0.00130432
0.00129767
0.00178751
0.00178784
0.00169815
0.00152276
0.00141609
0.00134208
0.00128565
0.00124359
0.00122951
0.00122759
0.00167919
0.00174007
0.00172763
0.00163981
0.00148036
0.00137173
0.00129887
0.00124634
0.00121635
0.00121276
0.00159941
0.00167854
0.00170759
0.00168706
0.00160495
0.00147488
0.00136897
0.00128757
0.00123684
0.00121948
0.00160389
0.00165119
0.00169884
0.00169975
0.00167293
0.00159635
0.00149566
0.00140672
0.00131846
0.0012598
0.00167906
0.00168839
0.00171119
0.00171568
0.00170672
0.0016777
0.00160287
0.00150902
0.00143189
0.00135027
0.00180718
0.0017745
0.00174497
0.00173172
0.0017204
0.00170206
0.00165862
0.00157338
0.0015074
0.00141473
0.00196023
0.00187967
0.00180171
0.00174703
0.00171788
0.00169799
0.00166016
0.00158938
0.00152984
0.00145542
0.00215163
0.00201582
0.00189561
0.00180317
0.00173715
0.00168615
0.0016458
0.00158839
0.00153935
0.00148105
0.0016852
0.00166185
0.00157183
0.00153495
0.00152959
0.00150419
0.00143452
0.0014006
0.0013965
0.00140439
0.0016455
0.00163894
0.0015498
0.00142454
0.00135847
0.00132021
0.00127678
0.00125583
0.00125687
0.00125105
0.00159761
0.00161432
0.00158581
0.00145583
0.00134783
0.00128455
0.00123752
0.00120324
0.00119243
0.00119251
0.00149065
0.00157152
0.00158658
0.00155551
0.00143028
0.00132343
0.00125689
0.00121243
0.00119061
0.0011895
0.00141405
0.0015025
0.00157485
0.00159207
0.00155993
0.00145251
0.00135639
0.00128375
0.00123407
0.00121613
0.00143177
0.00148169
0.00156944
0.00162435
0.00163054
0.00159254