/*--------------------------------*- C++ -*----------------------------------*\
  =========                 |
  \\      /  F ield         | OpenFOAM: The Open Source CFD Toolbox
   \\    /   O peration     | Website:  https://openfoam.org
    \\  /    A nd           | Version:  9
     \\/     M anipulation  |
\*---------------------------------------------------------------------------*/
FoamFile
{
    format      ascii;
    class       volScalarField;
    location    "79";
    object      f21.gas;
}
// * * * * * * * * * * * * * * * * * * * * * * * * * * * * * * * * * * * * * //

dimensions      [0 0 0 0 0 0 0];

internalField   nonuniform List<scalar> 
137980
(
0.895986
0.892344
0.883536
0.871456
0.85939
0.852701
0.851079
0.850661
0.848406
0.845755
0.899815
0.89634
0.888907
0.877513
0.862422
0.851759
0.849243
0.849011
0.847836
0.845543
0.90102
0.89867
0.893681
0.885006
0.872837
0.856733
0.848469
0.847443
0.848644
0.851
0.903635
0.902137
0.898801
0.892426
0.883485
0.872462
0.85923
0.851439
0.85062
0.855373
0.905922
0.905111
0.902985
0.898901
0.892649
0.884879
0.876226
0.867601
0.862452
0.863531
0.907978
0.907768
0.90654
0.904083
0.900026
0.894724
0.888877
0.883152
0.879023
0.878088
0.909221
0.909591
0.909207
0.907703
0.905504
0.902005
0.897954
0.893919
0.890731
0.888918
0.909588
0.910403
0.910471
0.90984
0.908362
0.9066
0.904015
0.900972
0.898517
0.896582
0.90909
0.910304
0.910708
0.910579
0.909725
0.908137
0.906478
0.904664
0.903076
0.90135
0.907093
0.908953
0.909652
0.909806
0.909587
0.908696
0.906868
0.905107
0.903741
0.90189
0.899951
0.894663
0.885656
0.874117
0.861735
0.85408
0.851386
0.849588
0.84408
0.837535
0.902778
0.897942
0.890317
0.877914
0.862023
0.85225
0.849443
0.848444
0.845011
0.840258
0.904115
0.900316
0.89409
0.884315
0.870098
0.85366
0.847731
0.846595
0.845806
0.843255
0.906648
0.90412
0.899545
0.891828
0.881076
0.866536
0.852287
0.847868
0.84718
0.849742
0.908782
0.90728
0.904248
0.898732
0.891004
0.880961
0.868443
0.856865
0.853474
0.855311
0.910548
0.909848
0.908271
0.904625
0.899308
0.892471
0.884439
0.875981
0.870018
0.869067
0.911612
0.911694
0.910924
0.909252
0.905647
0.901141
0.895822
0.890275
0.885722
0.883267
0.911713
0.912601
0.912334
0.911663
0.91006
0.907001
0.903573
0.899876
0.896699
0.894142
0.910898
0.912419
0.912734
0.912271
0.911771
0.910428
0.908102
0.905578
0.903532
0.901331
0.908791
0.910912
0.911929
0.911905
0.911436
0.910752
0.909664
0.907958
0.906506
0.904116
0.901754
0.895924
0.887219
0.875825
0.862844
0.853839
0.849003
0.84511
0.835447
0.81154
0.902526
0.897803
0.890087
0.877039
0.861122
0.850758
0.845797
0.837894
0.826745
0.812078
0.905501
0.900521
0.893068
0.881614
0.865114
0.849884
0.843548
0.837738
0.825833
0.814769
0.907857
0.904561
0.898553
0.888857
0.8747
0.856757
0.844317
0.838576
0.830154
0.824029
0.910487
0.908241
0.903653
0.896327
0.885567
0.870711
0.852996
0.842865
0.837778
0.836341
0.912248
0.911517
0.908387
0.903219
0.895473
0.88485
0.871489
0.857485
0.850702
0.848656
0.913364
0.913599
0.912222
0.908733
0.903552
0.89643
0.887485
0.877657
0.869923
0.865838
0.91402
0.914705
0.914532
0.912556
0.909316
0.904778
0.899168
0.893048
0.887736
0.88341
0.914231
0.915052
0.915236
0.914778
0.912659
0.909828
0.906376
0.902721
0.899857
0.896998
0.912998
0.914502
0.914769
0.914606
0.914054
0.912363
0.909797
0.907284
0.905482
0.903334
0.900623
0.895704
0.888639
0.878432
0.866207
0.855738
0.849821
0.85058
0.838093
0.825112
0.900733
0.896937
0.889566
0.877352
0.861796
0.848543
0.841598
0.837389
0.828685
0.815705
0.905234
0.899657
0.89086
0.87783
0.860593
0.843596
0.834472
0.826692
0.816237
0.808155
0.907221
0.90352
0.895508
0.882717
0.864522
0.843404
0.828757
0.820005
0.808136
0.802523
0.910682
0.907567
0.900881
0.889899
0.873112
0.850912
0.829711
0.818074
0.807495
0.800404
0.913568
0.911458
0.9065
0.898151
0.88463
0.864786
0.84005
0.82187
0.810178
0.802627
0.915515
0.914605
0.911331
0.905253
0.895723
0.881574
0.86156
0.838167
0.821852
0.812535
0.916809
0.916867
0.914841
0.910887
0.904308
0.894747
0.882341
0.86757
0.852936
0.840832
0.917139
0.917746
0.917062
0.914475
0.910194
0.903793
0.89594
0.888061
0.882134
0.875437
0.915286
0.917259
0.917432
0.91616
0.913484
0.909345
0.903462
0.898517
0.895851
0.896152
0.898775
0.894321
0.889675
0.882229
0.872906
0.861201
0.85331
0.847728
0.830749
0.828209
0.900661
0.896715
0.889926
0.878962
0.864824
0.851579
0.842938
0.836533
0.822544
0.81703
0.90577
0.899149
0.889298
0.875886
0.858313
0.841696
0.832703
0.82433
0.811685
0.80537
0.907529
0.902102
0.891457
0.875767
0.855432
0.834789
0.822266
0.813529
0.800195
0.793656
0.911363
0.90564
0.895567
0.879734
0.85735
0.832435
0.81415
0.803806
0.792633
0.787507
0.914325
0.910274
0.901615
0.88668
0.864532
0.837106
0.812638
0.797606
0.787012
0.781406
0.916341
0.914268
0.907948
0.895761
0.875612
0.848279
0.819034
0.797844
0.78291
0.771679
0.917338
0.917077
0.91291
0.904118
0.888604
0.865292
0.835768
0.807908
0.787211
0.771672
0.91683
0.917999
0.916362
0.91021
0.899043
0.882522
0.861199
0.83772
0.818833
0.804197
0.914216
0.916924
0.917221
0.914301
0.906713
0.893237
0.876103
0.863203
0.864541
0.871313
0.894438
0.891195
0.889715
0.886227
0.879573
0.867807
0.850919
0.835116
0.839472
0.824708
0.900855
0.896449
0.890106
0.880615
0.867355
0.851338
0.83884
0.825151
0.81892
0.813947
0.906522
0.89841
0.888021
0.874146
0.856216
0.838156
0.825468
0.812568
0.800658
0.799534
0.908332
0.9008
0.888517
0.87146
0.84941
0.826949
0.810993
0.796759
0.782916
0.78162
0.910907
0.903318
0.890893
0.871903
0.846411
0.81897
0.798521
0.78368
0.768824
0.766539
0.912857
0.907286
0.895147
0.874928
0.84669
0.814511
0.78744
0.768746
0.754566
0.753581
0.913616
0.911279
0.900466
0.880312
0.850336
0.813416
0.779222
0.760053
0.746534
0.745633
0.911094
0.913383
0.906179
0.887384
0.857728
0.817601
0.774247
0.743932
0.727209
0.722067
0.90556
0.91138
0.910514
0.895813
0.868867
0.830326
0.781421
0.746749
0.722752
0.693482
0.902574
0.909351
0.911392
0.903071
0.881113
0.845447
0.79866
0.765204
0.759822
0.771214
0.885619
0.888945
0.889141
0.886389
0.879922
0.863235
0.817075
0.81709
0.829977
0.740333
0.900348
0.894791
0.887925
0.877287
0.861232
0.830874
0.795518
0.800955
0.816465
0.739522
0.904573
0.894623
0.882065
0.864926
0.840706
0.802887
0.779669
0.784249
0.801826
0.740974
0.905601
0.894831
0.878024
0.854844
0.821937
0.781827
0.764001
0.76757
0.785097
0.740541
0.905788
0.894679
0.875324
0.846573
0.804165
0.764602
0.748946
0.75124
0.766598
0.737738
0.904759
0.895795
0.874169
0.83899
0.786361
0.749773
0.734642
0.734845
0.747548
0.732056
0.90145
0.897224
0.874339
0.83047
0.76825
0.733506
0.719017
0.717676
0.727747
0.722292
0.892467
0.897693
0.876812
0.824993
0.755084
0.718008
0.701174
0.698834
0.708181
0.70851
0.885268
0.891865
0.879702
0.824918
0.744607
0.705513
0.687431
0.681582
0.68655
0.686002
0.879742
0.888805
0.879415
0.829526
0.742758
0.692692
0.657264
0.640987
0.636389
0.640022
0.876954
0.886199
0.885787
0.880321
0.871507
0.831224
0.829094
0.818231
0.722638
0.485888
0.895168
0.886476
0.872204
0.847894
0.82137
0.805149
0.804899
0.786072
0.663903
0.477166
0.892507
0.873842
0.842083
0.810059
0.792872
0.78616
0.782829
0.753601
0.6012
0.490686
0.888967
0.86202
0.817406
0.786591
0.772837
0.768403
0.760781
0.720666
0.572119
0.519662
0.883631
0.851832
0.800053
0.768755
0.755876
0.751624
0.742515
0.698112
0.565498
0.526854
0.877403
0.845504
0.787928
0.753944
0.740746
0.735635
0.726266
0.688729
0.569825
0.534004
0.871183
0.843226
0.77919
0.741208
0.72693
0.721383
0.715319
0.688005
0.580619
0.542378
0.864161
0.845402
0.776231
0.731028
0.714093
0.706876
0.70269
0.686159
0.599009
0.561773
0.85446
0.843818
0.775697
0.723125
0.702239
0.694214
0.692248
0.682092
0.621581
0.574832
0.830559
0.834771
0.769665
0.714447
0.692296
0.681828
0.677388
0.674331
0.641186
0.600649
0.87681
0.879187
0.876042
0.874149
0.864656
0.841934
0.819175
0.723657
0.436552
0.40905
0.877622
0.863522
0.854058
0.847272
0.828675
0.811274
0.773257
0.586202
0.451583
0.523752
0.85451
0.832133
0.819651
0.811546
0.795867
0.771766
0.681642
0.532403
0.514195
0.668154
0.836405
0.806797
0.793256
0.784588
0.766457
0.721687
0.596233
0.542669
0.615101
0.74677
0.817308
0.786685
0.771739
0.759932
0.734138
0.665995
0.578471
0.567999
0.690465
0.787631
0.802822
0.76985
0.753622
0.738644
0.705583
0.631977
0.580732
0.598686
0.731143
0.800028
0.79237
0.758879
0.740974
0.721541
0.684576
0.616476
0.585735
0.619589
0.745143
0.799091
0.785034
0.749617
0.727754
0.706485
0.66952
0.61191
0.59219
0.630391
0.743987
0.79221
0.783026
0.747878
0.721912
0.69753
0.661531
0.611948
0.594403
0.630426
0.73783
0.78273
0.77678
0.742671
0.712636
0.687337
0.656338
0.615334
0.599326
0.620631
0.715037
0.764502
0.85889
0.858591
0.862247
0.858743
0.838972
0.807505
0.665925
0.455247
0.459348
0.484025
0.855834
0.848123
0.846403
0.832689
0.801326
0.727775
0.527482
0.463914
0.505862
0.552763
0.838211
0.826109
0.819512
0.798694
0.744509
0.593588
0.505756
0.505577
0.615231
0.67402
0.813073
0.801234
0.788442
0.754234
0.657057
0.541897
0.519931
0.595498
0.703692
0.751774
0.793202
0.780201
0.759147
0.705765
0.592665
0.54004
0.553837
0.678586
0.757156
0.794366
0.772054
0.756684
0.727667
0.660181
0.569143
0.548537
0.609417
0.731375
0.787637
0.814309
0.760125
0.741898
0.706607
0.631036
0.56569
0.561895
0.646908
0.758855
0.802821
0.822529
0.746525
0.724568
0.685257
0.612753
0.566874
0.577037
0.678506
0.774178
0.810271
0.826258
0.740551
0.719413
0.679878
0.609471
0.570195
0.581907
0.68181
0.775598
0.812394
0.826427
0.734683
0.709385
0.668277
0.604275
0.571129
0.578624
0.665698
0.766744
0.809118
0.824216
0.837002
0.844151
0.847131
0.836702
0.809258
0.764225
0.589155
0.545854
0.565109
0.553623
0.844155
0.839662
0.83635
0.81621
0.774292
0.691919
0.549856
0.53222
0.539864
0.528249
0.836111
0.82625
0.816537
0.788045
0.727264
0.593746
0.531033
0.53004
0.541919
0.545041
0.813155
0.803947
0.79039
0.750502
0.648726
0.547467
0.525026
0.537651
0.564823
0.610093
0.791176
0.78424
0.760861
0.696646
0.580281
0.530976
0.527616
0.556346
0.611789
0.682687
0.766224
0.755609
0.721824
0.639176
0.54897
0.52742
0.539774
0.594187
0.665697
0.730036
0.750708
0.73831
0.692919
0.592417
0.534928
0.527777
0.552817
0.622841
0.694835
0.747539
0.737705
0.715302
0.658104
0.565033
0.530312
0.530679
0.572103
0.645979
0.713327
0.765943
0.728856
0.708747
0.645728
0.554789
0.527117
0.530228
0.57577
0.651766
0.72405
0.768654
0.721963
0.694102
0.625618
0.542914
0.524259
0.527536
0.564319
0.640591
0.721935
0.776512
0.821636
0.818921
0.813562
0.796229
0.780233
0.731371
0.673272
0.690005
0.688508
0.678833
0.815241
0.80835
0.798006
0.774499
0.750484
0.702453
0.66249
0.676896
0.678349
0.670639
0.790115
0.788047
0.773861
0.746807
0.71455
0.670329
0.650291
0.669926
0.670052
0.6599
0.748579
0.753484
0.738907
0.709159
0.669409
0.647676
0.643383
0.664309
0.662281
0.646005
0.70087
0.712311
0.697299
0.66403
0.638311
0.631163
0.641892
0.659489
0.654452
0.634
0.666151
0.671481
0.655871
0.631095
0.616195
0.623693
0.639831
0.64932
0.637803
0.611081
0.648326
0.651965
0.633192
0.605116
0.596731
0.610885
0.631332
0.63259
0.621325
0.585803
0.62281
0.626458
0.607954
0.578329
0.574668
0.593616
0.611458
0.611644
0.596237
0.578231
0.618745
0.618629
0.600459
0.564627
0.552971
0.561911
0.589101
0.591064
0.584483
0.560305
0.610376
0.604924
0.58569
0.550828
0.533624
0.533933
0.544595
0.568398
0.558768
0.559648
0.654958
0.624626
0.616037
0.602794
0.596886
0.594029
0.637981
0.661702
0.663398
0.663926
0.639552
0.638847
0.622714
0.60192
0.587626
0.572616
0.571364
0.599463
0.6182
0.627345
0.630715
0.632125
0.622834
0.604907
0.590097
0.573111
0.55009
0.548115
0.564361
0.595345
0.625972
0.628892
0.623983
0.607433
0.59432
0.581167
0.55945
0.530597
0.533179
0.550135
0.639905
0.644254
0.638519
0.61977
0.600353
0.585012
0.571285
0.53683
0.51853
0.529391
0.665386
0.659738
0.645349
0.623692
0.607483
0.593329
0.57979
0.54803
0.511738
0.534256
0.677474
0.665534
0.646452
0.624475
0.610468
0.596829
0.585499
0.562781
0.511109
0.532567
0.684049
0.666361
0.645164
0.623634
0.611617
0.595239
0.5857
0.568186
0.515201
0.528745
0.685224
0.660985
0.639641
0.619278
0.603644
0.57401
0.569818
0.562422
0.521448
0.515022
0.672722
0.643962
0.62291
0.603256
0.560056
0.51802
0.520523
0.537881
0.513905
0.522968
0.666338
0.665082
0.671676
0.674196
0.673093
0.66678
0.656592
0.650402
0.648567
0.642088
0.686901
0.694682
0.696378
0.694805
0.689663
0.680194
0.670483
0.661263
0.655731
0.643467
0.701949
0.70896
0.709819
0.705512
0.696993
0.686207
0.676085
0.666188
0.659523
0.644771
0.724092
0.725406
0.719976
0.709729
0.698792
0.687665
0.678416
0.668752
0.66145
0.645482
0.737776
0.73217
0.722375
0.709205
0.69559
0.68123
0.672232
0.666055
0.660243
0.643854
0.742734
0.732408
0.718791
0.696738
0.67559
0.657169
0.648771
0.649382
0.650228
0.631508
0.740248
0.723236
0.699839
0.665874
0.635737
0.619938
0.622019
0.627305
0.637638
0.623873
0.721426
0.699281
0.660567
0.613341
0.599212
0.601723
0.611264
0.619466
0.630071
0.618317
0.701513
0.669377
0.611833
0.583033
0.586348
0.59649
0.612726
0.625583
0.630664
0.605692
0.690585
0.639799
0.583173
0.568465
0.5827
0.599966
0.619258
0.6261
0.624133
0.634777
0.677681
0.673351
0.673206
0.674633
0.67696
0.680797
0.684678
0.688544
0.695329
0.726696
0.678871
0.674996
0.675497
0.677658
0.681429
0.686118
0.689738
0.694307
0.705742
0.720693
0.680286
0.675932
0.676574
0.679046
0.683746
0.689526
0.694372
0.701089
0.718987
0.734201
0.679731
0.675302
0.676091
0.67884
0.683956
0.69084
0.69864
0.713091
0.740445
0.759677
0.676785
0.67365
0.674151
0.67604
0.68142
0.691198
0.709655
0.740854
0.774743
0.798469
0.674143
0.671638
0.671758
0.670776
0.675951
0.694954
0.735631
0.77627
0.805057
0.821341
0.672155
0.669346
0.667868
0.660817
0.672037
0.716622
0.763316
0.797637
0.815214
0.825334
0.671006
0.667547
0.665336
0.654219
0.674575
0.737259
0.779643
0.803453
0.817592
0.824677
0.670493
0.666799
0.665581
0.65414
0.689453
0.753351
0.786878
0.804795
0.810887
0.812149
0.671902
0.666264
0.674172
0.668422
0.708528
0.761471
0.784021
0.798071
0.805265
0.809885
0.686993
0.694559
0.703281
0.712714
0.721804
0.730362
0.752529
0.76831
0.747246
0.7315
0.688528
0.696062
0.706459
0.718299
0.728501
0.740611
0.76268
0.769855
0.757428
0.755856
0.695877
0.706023
0.717545
0.728177
0.73817
0.750824
0.769455
0.77835
0.764849
0.76243
0.698844
0.710764
0.72347
0.733683
0.743979
0.758402
0.776537
0.786154
0.777725
0.770766
0.704619
0.719194
0.733202
0.740716
0.751717
0.768291
0.784774
0.792799
0.790514
0.786124
0.710803
0.726158
0.739042
0.744741
0.757856
0.77824
0.791444
0.799436
0.801309
0.802896
0.719431
0.736424
0.747196
0.750873
0.76619
0.784787
0.797231
0.806143
0.811423
0.81686
0.727351
0.744688
0.75486
0.757024
0.771094
0.789829
0.801704
0.812532
0.820243
0.826508
0.734665
0.753778
0.764912
0.763574
0.774338
0.793505
0.804455
0.814532
0.822132
0.830047
0.741766
0.760312
0.771319
0.769956
0.780033
0.7933
0.804897
0.814279
0.823235
0.836072
0.715085
0.716928
0.713639
0.715669
0.720093
0.715401
0.709128
0.686039
0.677614
0.727561
0.731326
0.721758
0.715973
0.717928
0.727159
0.725666
0.720776
0.705982
0.679448
0.691509
0.744101
0.726659
0.719831
0.721562
0.732163
0.734697
0.732474
0.722452
0.695215
0.688278
0.747844
0.727998
0.721656
0.724821
0.737466
0.744601
0.743421
0.73435
0.711865
0.693669
0.74797
0.726943
0.724051
0.730422
0.744952
0.755441
0.754207
0.743787
0.718472
0.696233
0.736813
0.72322
0.726157
0.737804
0.754246
0.766214
0.76485
0.751513
0.717823
0.71025
0.727867
0.72206
0.73044
0.747985
0.766585
0.778519
0.776139
0.758096
0.717075
0.739966
0.720887
0.723379
0.737127
0.759999
0.78141
0.792462
0.789407
0.769722
0.720596
0.727456
0.719895
0.729686
0.746067
0.774927
0.799031
0.808391
0.805267
0.791617
0.743052
0.726083
0.724176
0.732882
0.757316
0.792128
0.815665
0.822537
0.819597
0.808429
0.769935
0.767497
0.713776
0.725497
0.692428
0.673944
0.666975
0.670123
0.708456
0.723688
0.729746
0.753215
0.760395
0.754275
0.729772
0.70405
0.674765
0.660023
0.670821
0.732522
0.751055
0.763628
0.781045
0.763788
0.744227
0.72541
0.707622
0.669599
0.645485
0.681475
0.746439
0.764409
0.787356
0.772823
0.750428
0.731999
0.720058
0.703504
0.661957
0.61303
0.72165
0.75585
0.790619
0.774585
0.751227
0.732702
0.72331
0.713511
0.695489
0.632525
0.660329
0.737297
0.78961
0.770746
0.742357
0.725828
0.72246
0.718694
0.707181
0.66803
0.639071
0.7001
0.783068
0.756974
0.731742
0.72009
0.718412
0.719823
0.715133
0.694075
0.642756
0.693201
0.765036
0.738228
0.715841
0.710091
0.713533
0.721971
0.7214
0.709197
0.654571
0.669927
0.738692
0.710721
0.699222
0.703292
0.713177
0.728601
0.729587
0.72149
0.682368
0.66592
0.707187
0.689981
0.692242
0.707262
0.726901
0.745872
0.745831
0.739703
0.717396
0.688696
0.804807
0.82882
0.841164
0.839292
0.83619
0.828525
0.815995
0.807593
0.793339
0.764848
0.814179
0.831619
0.829682
0.810572
0.795343
0.786616
0.779592
0.763895
0.747633
0.736394
0.821576
0.820988
0.792064
0.774894
0.767108
0.758253
0.748686
0.734971
0.719301
0.710276
0.810879
0.788244
0.764003
0.75446
0.747523
0.741697
0.733848
0.725928
0.724628
0.728378
0.789146
0.763773
0.750553
0.7438
0.739009
0.736581
0.734582
0.734783
0.740839
0.763597
0.778184
0.755564
0.743044
0.739391
0.738409
0.740316
0.742609
0.745306
0.757349
0.772097
0.772796
0.757579
0.73892
0.734377
0.738421
0.743125
0.747685
0.75376
0.764933
0.771424
0.771581
0.762482
0.742799
0.730167
0.731184
0.739786
0.746652
0.753875
0.768133
0.775018
0.774749
0.767561
0.754103
0.736232
0.726913
0.728984
0.736435
0.744402
0.766477
0.760949
0.77624
0.769058
0.760577
0.745798
0.731945
0.726257
0.722876
0.72665
0.754851
0.765393
0.786055
0.794684
0.808216
0.826744
0.830329
0.815706
0.801896
0.784413
0.780536
0.778603
0.778652
0.792367
0.803006
0.811813
0.813903
0.799211
0.796657
0.790559
0.788126
0.760526
0.777859
0.786486
0.795572
0.800672
0.80199
0.794835
0.792491
0.788074
0.771822
0.733167
0.778508
0.773507
0.779887
0.787479
0.789797
0.789276
0.789281
0.781481
0.767472
0.738422
0.799692
0.774548
0.77141
0.775084
0.781827
0.787301
0.784846
0.775293
0.765383
0.750242
0.819956
0.792143
0.771142
0.766305
0.769014
0.783494
0.780448
0.776834
0.76765
0.755113
0.818926
0.802534
0.773152
0.759821
0.754778
0.774846
0.779789
0.778692
0.772086
0.763713
0.784963
0.768789
0.76757
0.769095
0.750442
0.758762
0.783355
0.781942
0.77463
0.765774
0.807966
0.798855
0.797262
0.794477
0.774488
0.766143
0.779159
0.79683
0.791352
0.780782
0.789447
0.775488
0.782032
0.764832
0.760745
0.755857
0.762367
0.776866
0.78404
0.786958
0.809529
0.809371
0.806291
0.786462
0.758289
0.747663
0.73483
0.700364
0.664086
0.703356
0.809693
0.796675
0.812558
0.795904
0.75878
0.743945
0.753368
0.754975
0.791932
0.821623
0.811164
0.777024
0.822886
0.830089
0.815391
0.767345
0.788401
0.785139
0.816506
0.828653
0.845808
0.787476
0.798006
0.83828
0.845589
0.819512
0.789755
0.791402
0.812901
0.813463
0.850686
0.85263
0.834104
0.818485
0.832226
0.824632
0.780058
0.788458
0.796576
0.805926
0.844907
0.86428
0.85366
0.851938
0.809683
0.778814
0.783474
0.775539
0.78352
0.805326
0.843026
0.867396
0.8408
0.826255
0.843145
0.838172
0.829631
0.784858
0.787329
0.807548
0.840805
0.853215
0.835525
0.832018
0.834746
0.851553
0.834599
0.786931
0.802902
0.816927
0.814822
0.822142
0.824071
0.816345
0.808104
0.818525
0.806696
0.777831
0.668248
0.712364
0.828829
0.830401
0.835221
0.836543
0.80671
0.771835
0.80924
0.693473
0.600064
0.806399
0.892432
0.891075
0.889292
0.899661
0.900411
0.899112
0.892305
0.888124
0.887476
0.903803
0.895202
0.892682
0.889662
0.894235
0.900674
0.899611
0.894924
0.901214
0.89252
0.906137
0.906791
0.905553
0.903305
0.905881
0.89733
0.913256
0.914302
0.913399
0.910565
0.909378
0.907555
0.908414
0.908513
0.909681
0.9093
0.904399
0.904915
0.913792
0.909092
0.907032
0.88897
0.896847
0.903341
0.907119
0.909015
0.9068
0.891599
0.903191
0.911334
0.904752
0.881342
0.882727
0.884019
0.886826
0.894907
0.904067
0.900779
0.897237
0.898191
0.892196
0.868355
0.877811
0.881837
0.882569
0.882917
0.889044
0.897423
0.896672
0.895805
0.884094
0.890856
0.887165
0.883816
0.883195
0.882383
0.885812
0.891633
0.891941
0.887503
0.883271
0.89531
0.881236
0.882151
0.881155
0.880221
0.885006
0.888839
0.884534
0.884069
0.868672
0.899149
0.883489
0.884456
0.88346
0.879163
0.874532
0.880312
0.887181
0.879817
0.873691
0.917115
0.920928
0.903023
0.897128
0.891682
0.911383
0.926456
0.927555
0.9282
0.919871
0.909806
0.922467
0.916002
0.913025
0.91285
0.92684
0.928763
0.929473
0.928917
0.89034
0.848249
0.896371
0.911904
0.922221
0.923621
0.927637
0.930127
0.930719
0.929539
0.867516
0.855484
0.849604
0.849088
0.858547
0.874884
0.909541
0.928327
0.930261
0.929182
0.886857
0.916914
0.906933
0.872295
0.849678
0.847704
0.857827
0.913027
0.925808
0.929202
0.920833
0.870283
0.864596
0.866359
0.857386
0.848882
0.84795
0.857422
0.901871
0.922302
0.928831
0.874977
0.863248
0.84599
0.847988
0.849478
0.849908
0.847391
0.853426
0.905975
0.924472
0.88867
0.889795
0.880246
0.865485
0.854074
0.852671
0.84227
0.849702
0.906389
0.92403
0.860324
0.871737
0.878187
0.868684
0.859069
0.850703
0.819298
0.880512
0.922033
0.922467
0.871965
0.83119
0.861101
0.853372
0.837647
0.810474
0.883823
0.922534
0.918276
0.907572
0.92323
0.914167
0.874213
0.923925
0.929644
0.926316
0.917378
0.910832
0.904817
0.922655
0.893633
0.899234
0.905046
0.931265
0.930921
0.92856
0.922518
0.91009
0.906667
0.931017
0.918704
0.92302
0.929898
0.9312
0.930304
0.92946
0.927702
0.924242
0.923441
0.932319
0.927788
0.929648
0.930261
0.930107
0.929481
0.929405
0.929661
0.930345
0.931574
0.933026
0.92642
0.929105
0.929381
0.929296
0.928885
0.928893
0.929202
0.929827
0.931184
0.932945
0.904732
0.928157
0.928682
0.928832
0.928795
0.928717
0.929021
0.929623
0.930722
0.931909
0.917047
0.926305
0.928296
0.928625
0.928633
0.928514
0.928617
0.928685
0.928835
0.929772
0.918256
0.925919
0.928014
0.928488
0.928456
0.927815
0.926939
0.926611
0.927195
0.929014
0.922256
0.926332
0.928433
0.928811
0.928416
0.926999
0.92636
0.926526
0.927868
0.929203
0.925489
0.927973
0.929306
0.929469
0.92881
0.927722
0.927582
0.928593
0.930691
0.930414
0.849859
0.849017
0.846463
0.846322
0.846779
0.846624
0.846631
0.847541
0.84747
0.845565
0.85102
0.849746
0.848958
0.847472
0.847136
0.847473
0.847685
0.8459
0.847948
0.848204
0.853715
0.850898
0.849249
0.848517
0.848263
0.848144
0.848053
0.847247
0.846361
0.848332
0.856202
0.852996
0.850071
0.848311
0.847807
0.84799
0.848515
0.847964
0.848131
0.84681
0.857567
0.854695
0.851359
0.848607
0.847078
0.846855
0.847296
0.848071
0.84769
0.84471
0.857106
0.855044
0.851539
0.848526
0.846408
0.845628
0.845765
0.84646
0.847103
0.846027
0.854905
0.853368
0.850428
0.847129
0.844697
0.843725
0.843946
0.844616
0.845709
0.846383
0.850994
0.850152
0.847894
0.845316
0.843228
0.842209
0.842243
0.842874
0.844051
0.845589
0.846701
0.846134
0.844451
0.842625
0.841343
0.840878
0.841126
0.841837
0.843018
0.844653
0.841851
0.841673
0.840702
0.839639
0.839339
0.839536
0.840262
0.841405
0.842894
0.844024
0.855208
0.854221
0.852207
0.851495
0.850784
0.850192
0.849755
0.84925
0.849133
0.847358
0.857043
0.855067
0.853988
0.851891
0.850047
0.850897
0.851257
0.850644
0.850148
0.850093
0.859536
0.85598
0.85384
0.852789
0.852033
0.851569
0.851365
0.851196
0.85094
0.848735
0.861987
0.858212
0.8547
0.852389
0.851382
0.851202
0.851281
0.851341
0.851322
0.848313
0.863186
0.860109
0.856274
0.852858
0.850478
0.849565
0.849605
0.850088
0.850578
0.84825
0.862331
0.860428
0.856598
0.852848
0.849835
0.847947
0.847437
0.847649
0.848271
0.848568
0.859901
0.858563
0.855398
0.8516
0.848409
0.846231
0.845323
0.84531
0.845748
0.84672
0.856064
0.855241
0.853092
0.849813
0.84669
0.844488
0.843439
0.843401
0.84389
0.8451
0.851761
0.851354
0.850194
0.847804
0.845127
0.843252
0.842446
0.842532
0.843017
0.844194
0.846846
0.846734
0.846388
0.845223
0.843688
0.842393
0.842033
0.842311
0.843054
0.844187
0.861122
0.859661
0.857411
0.856846
0.855446
0.854312
0.853482
0.85226
0.851496
0.849701
0.86304
0.860794
0.859366
0.855428
0.854083
0.854649
0.854714
0.854137
0.853364
0.852107
0.864681
0.861382
0.85911
0.857415
0.856162
0.85453
0.85379
0.854194
0.853936
0.851473
0.866976
0.862649
0.859298
0.856876
0.855245
0.85438
0.853972
0.853802
0.853572
0.851674
0.867817
0.864536
0.859819
0.856214
0.853641
0.852076
0.851468
0.851511
0.851731
0.851304
0.866635
0.864498
0.860092
0.855446
0.85187
0.849574
0.848395
0.848042
0.848238
0.848631
0.864196
0.862451
0.858608
0.853932
0.849886
0.847093
0.845487
0.845115
0.845272
0.845895
0.860355
0.858946
0.856054
0.852376
0.848634
0.845521
0.843674
0.843098
0.843219
0.843843
0.855816
0.855013
0.853537
0.851344
0.848341
0.845196
0.843188
0.842599
0.842763
0.843298
0.850027
0.850182
0.850335
0.850144
0.848684
0.84626
0.844256
0.843551
0.843648
0.844304
0.868038
0.865053
0.862751
0.862051
0.860365
0.859254
0.857871
0.856223
0.853455
0.851879
0.869026
0.866624
0.864781
0.861985
0.860056
0.859386
0.858484
0.85743
0.855923
0.85479
0.869839
0.866515
0.864026
0.862167
0.860544
0.859068
0.8572
0.857045
0.856301
0.85497
0.871006
0.866984
0.863533
0.860709
0.858687
0.857386
0.856436
0.85588
0.855374
0.854305
0.871611
0.867502
0.862989
0.859095
0.855963
0.85386
0.852662
0.85213
0.851998
0.851614
0.870082
0.867155
0.861918
0.856866
0.85296
0.850271
0.84859
0.847927
0.847782
0.84787
0.867525
0.864869
0.85988
0.854715
0.850261
0.84707
0.845163
0.844349
0.844111
0.84439
0.864104
0.861635
0.857796
0.853767
0.849649
0.846039
0.843657
0.842547
0.842243
0.842473
0.859759
0.857936
0.856232
0.854043
0.851123
0.847609
0.844619
0.8432
0.84303
0.843249
0.852734
0.85276
0.853403
0.854105
0.853548
0.851348
0.84867
0.846666
0.845624
0.845585
0.8742
0.870519
0.868524
0.867822
0.865723
0.864096
0.86217
0.860042
0.856886
0.854612
0.874831
0.872261
0.870136
0.86816
0.865954
0.864123
0.862328
0.860663
0.858637
0.85718
0.874745
0.871248
0.86883
0.866849
0.864935
0.863129
0.860856
0.859697
0.858515
0.857068
0.87464
0.870891
0.866598
0.863275
0.861433
0.859873
0.858464
0.857469
0.856639
0.855349
0.874471
0.87013
0.865499
0.860729
0.857372
0.854923
0.853358
0.852433
0.851903
0.851196
0.872905
0.868934
0.863175
0.85766
0.853469
0.850498
0.848572
0.847502
0.846854
0.846622
0.870096
0.866135
0.860252
0.854782
0.850212
0.846838
0.844731
0.843633
0.843028
0.843059
0.866691
0.862885
0.858806
0.854771
0.850584
0.846684
0.844
0.842655
0.842176
0.842076
0.862831
0.860162
0.858409
0.856894
0.854186
0.850714
0.847388
0.845105
0.844384
0.844053
0.855264
0.854739
0.85557
0.857275
0.857579
0.856581
0.854112
0.852238
0.850543
0.849353
0.88018
0.876845
0.875111
0.873833
0.871178
0.869001
0.866561
0.863687
0.860386
0.857645
0.88045
0.877675
0.875201
0.873124
0.870707
0.868398
0.866016
0.863777
0.861307
0.859426
0.879158
0.876038
0.873497
0.871075
0.86871
0.866467
0.864075
0.862496
0.860649
0.858791
0.878152
0.874018
0.868651
0.866425
0.864315
0.86208
0.860219
0.858722
0.857481
0.855727
0.876916
0.872239
0.866907
0.860188
0.854047
0.855093
0.854048
0.852776
0.851787
0.850645
0.874995
0.869965
0.863791
0.85783
0.853488
0.850611
0.848632
0.847295
0.846176
0.845558
0.872013
0.866535
0.860078
0.85462
0.850232
0.846982
0.844828
0.84364
0.842889
0.842612
0.868319
0.863357
0.859257
0.855609
0.85172
0.847959
0.844991
0.843333
0.842693
0.842323
0.864644
0.86168
0.85995
0.858976
0.857167
0.854174
0.850892
0.848554
0.847512
0.846314
0.857972
0.856631
0.857198
0.859238
0.860791
0.860649
0.859167
0.857713
0.856233
0.855578
0.886476
0.88353
0.881275
0.879379
0.876558
0.873682
0.870722
0.867186
0.863543
0.860449
0.885539
0.882644
0.880037
0.877738
0.87512
0.872406
0.869651
0.866851
0.863762
0.861552
0.883511
0.880659
0.877768
0.87489
0.872138
0.869543
0.867099
0.864905
0.862553
0.860268
0.881192
0.876859
0.872634
0.869866
0.86696
0.864221
0.861963
0.859999
0.858224
0.856027
0.878823
0.873726
0.867127
0.861622
0.85815
0.856795
0.854974
0.853366
0.851945
0.850349
0.876228
0.870554
0.863954
0.85722
0.850587
0.850037
0.84892
0.847443
0.846019
0.845041
0.872992
0.866537
0.859861
0.854474
0.850264
0.847327
0.84523
0.844011
0.843148
0.842673
0.869234
0.863417
0.859292
0.855949
0.852523
0.849396
0.846742
0.844914
0.844241
0.843407
0.865893
0.862707
0.860977
0.860295
0.859261
0.857055
0.854259
0.852098
0.851404
0.849958
0.860513
0.858832
0.858988
0.860769
0.862921
0.863532
0.862982
0.862143
0.861264
0.8606
0.891773
0.889323
0.886852
0.884529
0.881641
0.876527
0.87439
0.870581
0.866539
0.863018
0.890056
0.887329
0.88467
0.882116
0.879303
0.876151
0.873106
0.869818
0.866346
0.863569
0.887557
0.884715
0.881629
0.87854
0.875495
0.872629
0.869757
0.867082
0.864436
0.86174
0.884128
0.880242
0.876623
0.873042
0.869609
0.866579
0.863886
0.861331
0.85918
0.856576
0.88055
0.875448
0.869548
0.865263
0.861796
0.858854
0.85648
0.854358
0.852423
0.850384
0.876902
0.870651
0.863096
0.857327
0.853312
0.851625
0.849669
0.847939
0.846228
0.844923
0.873314
0.866342
0.859612
0.854533
0.850696
0.848044
0.846058
0.844776
0.843785
0.84295
0.869596
0.863567
0.859316
0.855996
0.85284
0.850017
0.847822
0.846386
0.845826
0.844578
0.86701
0.863581
0.86196
0.861286
0.860321
0.858366
0.856088
0.854299
0.853695
0.852085
0.862978
0.861293
0.861125
0.862316
0.864452
0.865372
0.865126
0.864438
0.863582
0.862083
0.895692
0.893998
0.891678
0.889127
0.886057
0.881396
0.878124
0.873774
0.869403
0.865582
0.89379
0.891444
0.888845
0.88614
0.883176
0.879839
0.876203
0.872617
0.868916
0.86571
0.890923
0.888195
0.885135
0.881979
0.878741
0.875627
0.872236
0.86936
0.866395
0.863273
0.887055
0.883456
0.879729
0.875946
0.872345
0.86905
0.865875
0.863009
0.860438
0.857338
0.882205
0.877661
0.87293
0.868447
0.864458
0.861137
0.858166
0.855608
0.853128
0.850668
0.87735
0.871227
0.864798
0.85989
0.856241
0.853449
0.850948
0.848896
0.846772
0.845025
0.873112
0.866368
0.860164
0.855379
0.851806
0.849116
0.847031
0.845622
0.844375
0.843086
0.869606
0.863747
0.859471
0.856058
0.853034
0.850522
0.848622
0.84715
0.846272
0.844675
0.867762
0.864325
0.862509
0.861677
0.860501
0.858495
0.856363
0.854676
0.853988
0.852225
0.865535
0.863901
0.863261
0.864016
0.865642
0.866128
0.86569
0.864769
0.86367
0.861452