/*--------------------------------*- C++ -*----------------------------------*\
  =========                 |
  \\      /  F ield         | OpenFOAM: The Open Source CFD Toolbox
   \\    /   O peration     | Website:  https://openfoam.org
    \\  /    A nd           | Version:  9
     \\/     M anipulation  |
\*---------------------------------------------------------------------------*/
FoamFile
{
    format      ascii;
    class       volScalarField;
    location    "79";
    object      f5.gas;
}
// * * * * * * * * * * * * * * * * * * * * * * * * * * * * * * * * * * * * * //

dimensions      [0 0 0 0 0 0 0];

internalField   nonuniform List<scalar> 
137980
(
0.00247234
0.00260018
0.00291969
0.00341169
0.00392516
0.00420448
0.00427785
0.00429695
0.00438522
0.00447783
0.00235935
0.00246857
0.0027168
0.00314639
0.00376906
0.00423321
0.00433625
0.00434786
0.00438809
0.00446321
0.00232585
0.00239836
0.00256178
0.00285824
0.0033298
0.00399072
0.00435196
0.0043872
0.00432533
0.00420464
0.00222685
0.0022732
0.00237876
0.00258693
0.0029217
0.00333654
0.00386185
0.00421029
0.00423885
0.00403629
0.00213862
0.00216668
0.00223183
0.00236432
0.00257957
0.00286381
0.00319016
0.00352795
0.00373262
0.00370781
0.0020564
0.00206538
0.00209919
0.00218447
0.00231015
0.00250543
0.00271209
0.0029234
0.00308128
0.00312477
0.00200436
0.00199485
0.0020034
0.00204724
0.00212457
0.00223561
0.00238564
0.00253851
0.00264774
0.00271473
0.00198715
0.00196452
0.00196296
0.00197398
0.00202606
0.00209142
0.00217298
0.00228161
0.00236341
0.00243623
0.00199812
0.00196407
0.00195408
0.0019552
0.00197546
0.00203855
0.0021079
0.00217193
0.00221217
0.00226776
0.00206258
0.00200163
0.00198455
0.00197941
0.0019827
0.00201234
0.00208295
0.00215156
0.00219037
0.00225374
0.00232714
0.00250199
0.0028317
0.00329653
0.00381109
0.00413884
0.00425622
0.00432556
0.00450727
0.00471844
0.00222353
0.00238208
0.00263908
0.00311359
0.00378436
0.00420229
0.00432035
0.00436398
0.00449157
0.00466717
0.00219248
0.00231969
0.00252046
0.00287579
0.00341712
0.00411685
0.00436976
0.00441518
0.00443882
0.00453171
0.00210647
0.00218541
0.00232011
0.00259863
0.0029858
0.00353629
0.00415662
0.00434545
0.00436688
0.00422516
0.0020237
0.00207459
0.00216603
0.00235235
0.00261854
0.00298178
0.00344781
0.00393517
0.00408544
0.00400981
0.00195545
0.00197845
0.00203406
0.00213964
0.00232774
0.00255954
0.00284621
0.00315398
0.00338553
0.00344762
0.00191374
0.00190997
0.00193962
0.00198429
0.0021017
0.00225734
0.00243651
0.00263561
0.00279675
0.00289531
0.00190896
0.00187991
0.00188808
0.00191807
0.0019508
0.00205529
0.00218123
0.00230542
0.00240732
0.00249948
0.00193693
0.00188663
0.00187503
0.00189357
0.00191482
0.00194304
0.00202127
0.00210644
0.00216813
0.00224673
0.00200647
0.00193455
0.00189885
0.00190164
0.00192237
0.00194864
0.00198274
0.00202516
0.00206699
0.0021477
0.00221609
0.00242039
0.00275146
0.00320992
0.00376069
0.0041515
0.00434238
0.00446712
0.00478582
0.00564071
0.00221923
0.00237186
0.00263869
0.00314169
0.00381395
0.00425284
0.00446639
0.0048023
0.00521458
0.0057809
0.00210257
0.00227737
0.00254352
0.00295135
0.00360689
0.0042682
0.00453757
0.00478773
0.00528688
0.00576382
0.00202742
0.00213325
0.00234143
0.00267549
0.00319492
0.003929
0.00447714
0.00472344
0.00508627
0.00534403
0.00194544
0.00201297
0.00217112
0.00240846
0.0027832
0.0033276
0.00404278
0.00450858
0.00472214
0.00477214
0.00188813
0.00191139
0.00200019
0.00217308
0.00243107
0.00279312
0.00328402
0.00383102
0.0041331
0.00424095
0.00185068
0.00184572
0.00187209
0.00199171
0.00215052
0.0023892
0.00268907
0.00304614
0.00334348
0.00352693
0.00183431
0.00181349
0.0018147
0.00185647
0.00196743
0.00210682
0.00229263
0.00249803
0.00267701
0.00284379
0.00182847
0.00180578
0.0018005
0.00179844
0.00185395
0.001954
0.00205807
0.00217362
0.0022589
0.0023589
0.00186648
0.00182231
0.00181596
0.00181455
0.00181954
0.00186681
0.00195223
0.00203467
0.00208398
0.00215862
0.00221803
0.00240965
0.00267634
0.00308729
0.00362429
0.00409022
0.0043271
0.00423739
0.00467541
0.00508014
0.00224387
0.0023814
0.0026366
0.00312247
0.00377708
0.00438497
0.00467199
0.00478394
0.0051039
0.00561217
0.00208881
0.00228434
0.00259038
0.00307291
0.00378638
0.00453917
0.00495402
0.0052888
0.0057267
0.00604299
0.00202151
0.00214567
0.00240358
0.00284997
0.00356652
0.0045017
0.00518633
0.00558993
0.00614508
0.00637217
0.00191304
0.00201389
0.00222285
0.00257723
0.00318184
0.00411283
0.00510662
0.00563656
0.006148
0.00645304
0.00181986
0.00187762
0.00203798
0.00230675
0.00274063
0.00344651
0.00456946
0.00543934
0.00599356
0.00633252
0.00175794
0.00177793
0.00188656
0.00206819
0.00237139
0.00284858
0.00354768
0.00459267
0.00541595
0.00585263
0.00171569
0.00171447
0.00176876
0.00189203
0.00209265
0.0023934
0.00281806
0.00335102
0.00391945
0.00446618
0.00170237
0.00168734
0.00170168
0.00178761
0.00190766
0.00210372
0.00235229
0.0026172
0.00281923
0.00308037
0.00176479
0.00169849
0.0016954
0.00172956
0.00181995
0.00193506
0.0021099
0.00226847
0.00234346
0.0023278
0.00223788
0.00242113
0.00263032
0.00293811
0.0033562
0.00390361
0.00422311
0.0043611
0.00500257
0.00472607
0.00224164
0.00238132
0.0026236
0.00306882
0.00368016
0.0042818
0.00465836
0.00486268
0.00540603
0.00531025
0.00204687
0.00228691
0.00263696
0.00317108
0.00392422
0.00468804
0.00507536
0.00544015
0.00592518
0.00598553
0.0019783
0.00215634
0.0025309
0.00314279
0.00402138
0.00495996
0.00554695
0.00590527
0.00649178
0.00669344
0.00183825
0.00203616
0.00236341
0.00295209
0.00388774
0.00502715
0.00591153
0.00637322
0.00682064
0.00699884
0.00175165
0.00188817
0.00214924
0.00264685
0.00352169
0.00479105
0.00593032
0.00665291
0.00714401
0.00732151
0.00169586
0.00176307
0.00195357
0.00231123
0.00300125
0.00416027
0.00561612
0.00661188
0.00734614
0.00788933
0.00167272
0.00168042
0.0018038
0.00206295
0.00254032
0.00335689
0.00464906
0.00608601
0.00702479
0.00768746
0.00170079
0.00165775
0.00170743
0.00187609
0.00221013
0.00275848
0.00354236
0.00454217
0.00541152
0.00594551
0.001784
0.00169413
0.00168129
0.00176082
0.00197274
0.00239566
0.00299302
0.00347332
0.00340146
0.00308462
0.00230775
0.00248016
0.00259421
0.00276441
0.00305586
0.00356573
0.0043279
0.00494043
0.00461243
0.00462176
0.00220861
0.00236352
0.00260734
0.00299576
0.00356754
0.00429825
0.00484075
0.00536273
0.00549866
0.0052936
0.00198612
0.00229525
0.00267549
0.00323338
0.0040291
0.00487196
0.00544157
0.00595953
0.00641413
0.00621482
0.00190947
0.00217681
0.00261949
0.00330409
0.00427945
0.00533899
0.00608666
0.00673287
0.00735047
0.00715767
0.00183409
0.0020805
0.00250305
0.00324171
0.00436342
0.0056619
0.00665891
0.00739705
0.00798851
0.008005
0.00177581
0.00193556
0.00233515
0.00307776
0.00429691
0.00582094
0.00711942
0.00814644
0.00870394
0.00879426
0.00175609
0.00181678
0.00214136
0.00285157
0.00409107
0.00579782
0.00755287
0.00858766
0.00912833
0.00924781
0.00183552
0.00176052
0.00195838
0.00257396
0.00373948
0.00556444
0.0077256
0.00944691
0.0102347
0.0105634
0.00198504
0.0018255
0.0018327
0.00227026
0.00326051
0.00490396
0.00729539
0.00925871
0.0103718
0.011741
0.00205593
0.00187133
0.00180709
0.00203992
0.00278461
0.00424573
0.00617312
0.00790595
0.00803338
0.00734514
0.00247206
0.0025087
0.00257216
0.0027196
0.00299541
0.0037244
0.00576544
0.00547257
0.00448608
0.00686585
0.0021955
0.00240032
0.00266943
0.00310026
0.00378776
0.00521245
0.00672817
0.00620913
0.00506658
0.00700422
0.00203318
0.00239035
0.00287517
0.00358105
0.0046848
0.00657918
0.00749631
0.00714
0.00585801
0.00725063
0.00197818
0.00234018
0.00298241
0.00397658
0.00551225
0.00758428
0.00827251
0.00810582
0.00675114
0.00762834
0.00196451
0.00232582
0.00305523
0.00430592
0.00636212
0.00842262
0.00904369
0.00902586
0.00784747
0.00814237
0.00199433
0.00226487
0.00308561
0.004632
0.00720804
0.00919021
0.00985994
0.00993973
0.00903972
0.00891168
0.00210197
0.00222286
0.00306602
0.00495349
0.00815337
0.0100743
0.010787
0.0109508
0.0101822
0.00979476
0.0023769
0.0022128
0.00296334
0.00511831
0.00878289
0.0109244
0.0117717
0.0120171
0.0113532
0.0108987
0.00262898
0.00241102
0.00285506
0.00510455
0.00934364
0.0115745
0.0125618
0.0129385
0.0126081
0.012399
0.00276172
0.00249393
0.00287515
0.00490111
0.0092894
0.0121341
0.0144259
0.0155493
0.0160342
0.0156142
0.00264912
0.00258994
0.00266985
0.00288352
0.00322208
0.00495107
0.00471216
0.0043884
0.00790216
0.0234243
0.00234259
0.00267399
0.00325668
0.00431981
0.00544414
0.00600938
0.00566509
0.00569131
0.0120014
0.0238463
0.00242761
0.00313734
0.00456946
0.00611215
0.0067696
0.00690893
0.00664333
0.00738539
0.0161461
0.0234075
0.00252592
0.00354979
0.00573699
0.00725141
0.00777476
0.00780954
0.00771844
0.00930152
0.0183295
0.0219867
0.00270567
0.00392348
0.00656135
0.00813818
0.00865851
0.00872941
0.00872111
0.0107788
0.0190027
0.0216855
0.00292306
0.00416526
0.00713088
0.00888467
0.00948146
0.00964943
0.00970884
0.0115752
0.0189003
0.0212582
0.00315179
0.0042567
0.00754017
0.00957514
0.0102649
0.0104724
0.0104516
0.0117386
0.0183618
0.020699
0.00346918
0.00418004
0.00766209
0.0101195
0.0109891
0.0113394
0.0113753
0.0120821
0.0175813
0.0194999
0.00383747
0.00424719
0.00767305
0.0105718
0.0116962
0.0120766
0.0121141
0.0124438
0.0162365
0.018882
0.0047717
0.00463979
0.00796903
0.0110215
0.0121803
0.0128314
0.013152
0.0131962
0.0153048
0.0177069
0.00286057
0.00288421
0.00299784
0.00308159
0.00343873
0.00419933
0.00447658
0.00865412
0.0275316
0.0288978
0.00290919
0.00354745
0.00390137
0.00414448
0.00483055
0.00530321
0.00677746
0.0179824
0.0260021
0.0192753
0.00393988
0.00498389
0.00553476
0.00582121
0.0063757
0.00730705
0.0120507
0.0205963
0.0212328
0.0111876
0.00472415
0.00621187
0.00682173
0.00712219
0.00782846
0.0100769
0.0171971
0.019987
0.0149134
0.00813913
0.00559596
0.00720789
0.00791828
0.00840322
0.00960857
0.0132968
0.0181263
0.0185792
0.0109194
0.00681017
0.00628178
0.00809676
0.00890035
0.00957586
0.0112564
0.015376
0.0180214
0.0166997
0.009238
0.00656482
0.00678951
0.00866553
0.009539
0.0105519
0.0125214
0.0163168
0.0177709
0.0155291
0.00887388
0.00670616
0.00714291
0.00913674
0.0102973
0.0114286
0.0134449
0.0166082
0.0174374
0.0149895
0.00904805
0.00715517
0.00724533
0.00920148
0.0105987
0.0119381
0.0139736
0.0166644
0.0173532
0.0151199
0.00946109
0.00762992
0.00755479
0.0094597
0.0111396
0.0125415
0.0143104
0.0166257
0.0172431
0.0158004
0.0106307
0.00866436
0.00374207
0.00373426
0.00361613
0.00367478
0.00435145
0.00592374
0.0137371
0.0261647
0.0252505
0.0233669
0.00389334
0.00417598
0.00417908
0.00463828
0.00613925
0.010265
0.0221759
0.0253083
0.0216815
0.0178642
0.00462726
0.00512598
0.0053394
0.00623561
0.00930883
0.0186867
0.0226709
0.0221978
0.0143583
0.0114476
0.00584331
0.00637095
0.00693739
0.00878099
0.0146753
0.0209486
0.021672
0.0160645
0.010294
0.00815662
0.00681061
0.00743341
0.0085159
0.0116282
0.0183618
0.0207669
0.0194345
0.0115625
0.00816129
0.00668108
0.00791021
0.00871181
0.010342
0.0143886
0.0194202
0.0201684
0.0158607
0.00930894
0.0070004
0.00595776
0.00853774
0.00953468
0.0115406
0.016133
0.0194069
0.0193944
0.0137957
0.00822573
0.0063988
0.00564921
0.00928281
0.0105004
0.0127664
0.0172025
0.0193386
0.0184355
0.0121029
0.00760796
0.00609288
0.0055412
0.00959104
0.0107621
0.0130626
0.0173796
0.0191566
0.0181782
0.012102
0.00762799
0.00603747
0.00554624
0.00987899
0.0113039
0.0137082
0.0176291
0.0190708
0.0183767
0.0129836
0.00798091
0.00608971
0.00565563
0.00441861
0.00437972
0.00429028
0.00463192
0.00573223
0.00812391
0.0181929
0.0205548
0.0191504
0.0197393
0.00442235
0.00460445
0.00469428
0.0054754
0.00762834
0.0122879
0.0206686
0.0215104
0.0207606
0.0208528
0.00478344
0.00515292
0.005531
0.00684992
0.0101455
0.0182512
0.0216529
0.0214391
0.0202974
0.0197425
0.00584103
0.00628016
0.00682847
0.00892972
0.0150317
0.0208423
0.0218639
0.0208833
0.0188112
0.015687
0.00691803
0.00720326
0.00840913
0.0121029
0.0190675
0.0216141
0.0216779
0.0195914
0.0157485
0.0122019
0.00824286
0.00875956
0.0106603
0.0156359
0.0207832
0.0217574
0.0208772
0.0171137
0.0130848
0.00995481
0.00905461
0.00968167
0.0123417
0.0185071
0.021432
0.0217088
0.0200422
0.0154694
0.0115866
0.00898797
0.00973592
0.0110205
0.0144295
0.0199993
0.0216691
0.02153
0.0187409
0.014169
0.0107662
0.00814824
0.0102151
0.0113781
0.0152252
0.0205666
0.0218443
0.0215735
0.0185771
0.0139307
0.0101675
0.00796324
0.0105391
0.0121973
0.0163189
0.0211246
0.0220288
0.0217149
0.0193146
0.0144835
0.0102556
0.00740114
0.00550523
0.0056402
0.00587007
0.00667035
0.00737547
0.00991862
0.0129649
0.011873
0.0119034
0.0124503
0.00583705
0.00612148
0.00658564
0.00770471
0.00892871
0.0114901
0.0135739
0.0126071
0.0123925
0.0126647
0.00702227
0.00705721
0.00774748
0.00907404
0.0108275
0.0132636
0.0142594
0.01294
0.012662
0.0131382
0.00905787
0.00879096
0.00945095
0.0110548
0.0133412
0.0144301
0.0144786
0.0130618
0.0130434
0.0138409
0.0117757
0.011013
0.0117088
0.0135722
0.014955
0.0152409
0.0144391
0.0133335
0.0135018
0.0145656
0.0137331
0.0134544
0.0141706
0.015476
0.0162628
0.0156572
0.0145893
0.0139353
0.0145123
0.0160413
0.0146744
0.0146109
0.0156265
0.0170994
0.0174124
0.01645
0.0150929
0.0149488
0.0155303
0.0178252
0.0160748
0.0160975
0.0171913
0.0188906
0.0188722
0.0175151
0.0163904
0.0163965
0.0174046
0.0183572
0.0163465
0.0165044
0.0175723
0.0197939
0.0203522
0.0197266
0.0178671
0.0178528
0.0182365
0.0194725
0.0166329
0.0172156
0.0184874
0.020649
0.0215783
0.0215191
0.0209181
0.0193943
0.0200695
0.0189139
0.013918
0.0159831
0.0165819
0.01736
0.0176367
0.0176196
0.014935
0.0133567
0.0132274
0.0131558
0.0150935
0.0152098
0.0160975
0.0173467
0.0181375
0.0188213
0.0188072
0.0170471
0.0158262
0.015159
0.0154964
0.0154902
0.0160052
0.0170343
0.0178796
0.0188776
0.0201059
0.0200335
0.0189796
0.0169326
0.0158436
0.0156167
0.0159102
0.016885
0.0175504
0.0183421
0.0196688
0.0212048
0.020983
0.0197276
0.0149868
0.0146998
0.0150232
0.0160968
0.0172074
0.0181527
0.0189227
0.0209999
0.0220607
0.0213105
0.0134136
0.013783
0.0146735
0.0159107
0.0168437
0.0176277
0.018436
0.0204017
0.0226627
0.0213315
0.0127552
0.0134899
0.0146367
0.0159122
0.0167039
0.0174397
0.0181067
0.0194829
0.0229134
0.0216025
0.0123987
0.0134395
0.0146781
0.01593
0.0166193
0.0175347
0.0180804
0.0191786
0.0228006
0.0220853
0.0123376
0.0137656
0.0149995
0.0162242
0.0170527
0.0187941
0.0189666
0.0194716
0.0223878
0.023121
0.0130448
0.014738
0.0160188
0.017112
0.019678
0.0219942
0.0217848
0.0204832
0.0228362
0.0224216
0.0131383
0.0131981
0.0129199
0.0128343
0.0128809
0.0131804
0.0138013
0.0141866
0.0142659
0.0145456
0.0119277
0.0115965
0.0115262
0.0116036
0.0118944
0.0124554
0.0130136
0.013532
0.0138591
0.0145635
0.0112079
0.0108321
0.0107812
0.0110091
0.011512
0.0121129
0.0126937
0.0132525
0.0136271
0.0144706
0.0100036
0.00989635
0.0101555
0.0107985
0.0114105
0.0120304
0.0125904
0.0131435
0.013544
0.0144512
0.00925067
0.0095322
0.0100409
0.0108422
0.011587
0.0124196
0.0128893
0.013207
0.0135532
0.0144918
0.00894837
0.00951036
0.0102497
0.0115348
0.0126964
0.0137302
0.0141597
0.0141214
0.0141182
0.0151564
0.00901721
0.00999908
0.0113636
0.0132449
0.0148921
0.0157361
0.0156371
0.0153389
0.014747
0.0156146
0.010138
0.0114061
0.0135706
0.016184
0.0169195
0.0167265
0.0161845
0.0157026
0.0151357
0.0158184
0.0112143
0.0129345
0.0163085
0.017914
0.0176745
0.0170402
0.0161026
0.0153324
0.0150324
0.0165441
0.0115759
0.0144048
0.0178342
0.0186741
0.0178991
0.0168701
0.0155247
0.0152429
0.0153789
0.015279
0.0124373
0.0127167
0.0126976
0.0126528
0.0125667
0.0124302
0.0122659
0.0121073
0.0116987
0.0097434
0.0123027
0.0125782
0.0125955
0.0125265
0.0123681
0.0120963
0.0119465
0.011763
0.0112425
0.0101743
0.0122558
0.0125552
0.0125695
0.0124891
0.0122846
0.0119391
0.0117135
0.0113968
0.0104713
0.00957204
0.0122379
0.0125665
0.0125896
0.0124946
0.0122585
0.0118929
0.0115148
0.0107957
0.00930194
0.00825558
0.0122661
0.0126896
0.0127415
0.0126606
0.0124099
0.0119131
0.0109462
0.00922913
0.00745479
0.00622227
0.0123707
0.0128052
0.0128763
0.012931
0.0126951
0.0117048
0.00948791
0.00728641
0.00601169
0.00531507
0.0124275
0.012926
0.0130832
0.0134875
0.0128907
0.0104663
0.00797964
0.00636256
0.00542634
0.0049371
0.0124665
0.0130141
0.0132542
0.0138747
0.0127631
0.00934877
0.00728943
0.00602092
0.00524584
0.00485379
0.0124528
0.0130425
0.0133117
0.0139156
0.0121221
0.00858855
0.00695726
0.00611084
0.00571915
0.00543239
0.0122822
0.0130089
0.0128049
0.0131509
0.0110056
0.00829565
0.00718227
0.00649001
0.00612945
0.0057894
0.0117822
0.0114928
0.0111028
0.0106701
0.0102283
0.00984297
0.00883072
0.00800561
0.00875762
0.0086676
0.0115572
0.0113734
0.010949
0.0104354
0.00992847
0.00941788
0.00831328
0.00785299
0.00837582
0.00828004
0.0110551
0.0108644
0.010429
0.00995072
0.00948167
0.00889916
0.00795924
0.00744562
0.00813606
0.00822785
0.010771
0.0106387
0.0101832
0.00971558
0.00925344
0.00855444
0.00762272
0.0071077
0.00756033
0.00795714
0.0104438
0.010218
0.00968446
0.00937597
0.0089055
0.00805
0.00721
0.00684499
0.00700948
0.00727529
0.0101596
0.00986159
0.00944083
0.00921538
0.00864905
0.00754355
0.00686895
0.00655826
0.0064988
0.00649479
0.00985492
0.00936982
0.00904352
0.00896674
0.00818562
0.00721887
0.00660491
0.00625076
0.00605415
0.00587271
0.00949345
0.0089634
0.00873183
0.00868246
0.00798682
0.00699295
0.00638956
0.00595623
0.00564549
0.00541819
0.00911834
0.00847718
0.00820941
0.00839119
0.00784353
0.0068026
0.00625719
0.00584083
0.00555369
0.00523468
0.00879078
0.00808635
0.00795168
0.00809511
0.00752122
0.00674211
0.00618878
0.0057467
0.00535973
0.00484235
0.00947083
0.010261
0.0102092
0.0100869
0.00987899
0.0102603
0.0107396
0.0123324
0.0126683
0.00933244
0.00917547
0.00998773
0.0101372
0.00997368
0.00950945
0.00970943
0.0101573
0.0111424
0.0127409
0.0116916
0.00891542
0.00981408
0.00991134
0.00974585
0.00922268
0.00921722
0.0095183
0.010111
0.0119172
0.0122132
0.00880639
0.00973297
0.00981192
0.00958601
0.00892284
0.00869228
0.00895279
0.00954276
0.0109992
0.0119336
0.00876221
0.00969904
0.00962697
0.00925902
0.00851188
0.00813959
0.00839942
0.00906759
0.0106628
0.0118205
0.00922665
0.00962511
0.00942978
0.00882687
0.00805678
0.00764889
0.00790504
0.00868881
0.0107147
0.0110545
0.00944315
0.0094041
0.00904905
0.00824087
0.00749874
0.00712016
0.00738715
0.00839695
0.0107727
0.00942928
0.00947226
0.00916762
0.00853128
0.00767316
0.00695727
0.0066042
0.00684026
0.00785529
0.0105877
0.0101856
0.00915919
0.00865946
0.00804241
0.00708559
0.00632647
0.00603515
0.00620672
0.00686473
0.00932077
0.0102926
0.00881187
0.0084161
0.00751201
0.00641788
0.00573119
0.00554393
0.00567724
0.00616455
0.0080109
0.00808359
0.00788708
0.00969465
0.0120141
0.0130936
0.0134261
0.013239
0.0109781
0.0101482
0.00985575
0.00866668
0.00788516
0.00834756
0.00961554
0.0109472
0.0130267
0.0139228
0.0133056
0.00966411
0.00875651
0.0081589
0.00707404
0.00782628
0.00877829
0.00973572
0.0106715
0.0132046
0.0148113
0.0125449
0.00897883
0.00812294
0.00674131
0.0073433
0.00842091
0.00931416
0.00992979
0.0108543
0.0136318
0.0168091
0.0102242
0.00849217
0.00655622
0.0071939
0.00832322
0.00920773
0.00967694
0.0102058
0.0113878
0.0156579
0.0138721
0.00940953
0.0064813
0.00734629
0.0087065
0.00952049
0.00965346
0.00993017
0.010666
0.013264
0.0152711
0.0115324
0.00669236
0.00795682
0.00925482
0.00980793
0.00993843
0.00987329
0.0101894
0.0114648
0.0150259
0.0119868
0.00751318
0.00891157
0.0101139
0.0103683
0.0101868
0.00973302
0.00986306
0.0106227
0.0142175
0.0134788
0.00883042
0.0103854
0.0108659
0.0105987
0.0102163
0.00945669
0.00950215
0.00996938
0.0122876
0.0134258
0.0106564
0.0113594
0.0111706
0.0105682
0.0097029
0.00880915
0.00885875
0.00918873
0.0101512
0.00960503
0.00584509
0.0048588
0.00455807
0.00470723
0.00484196
0.00515268
0.00558721
0.00569871
0.00573805
0.00618177
0.00560297
0.00490622
0.00500283
0.00571094
0.00626981
0.00643784
0.00641344
0.00636418
0.00651701
0.00685052
0.00535897
0.0053459
0.00653989
0.00723896
0.00746587
0.00754101
0.00761277
0.00788555
0.00854768
0.00915585
0.00581635
0.00681528
0.007965
0.00831315
0.00840653
0.00842495
0.00850556
0.00873039
0.00903954
0.00913769
0.00677441
0.00802113
0.00868706
0.00886287
0.00887562
0.00879463
0.00877027
0.00885005
0.00885018
0.0080799
0.00726502
0.00848114
0.00903006
0.00907682
0.00900299
0.00887293
0.00877834
0.00875779
0.00838256
0.00781945
0.00755295
0.00831701
0.00924004
0.00938135
0.00917851
0.0089558
0.00875693
0.0085413
0.0081886
0.00783223
0.00758237
0.00803151
0.00910604
0.00959718
0.0096087
0.00917274
0.00887321
0.00861412
0.00808758
0.00771207
0.00733512
0.00776125
0.00840865
0.00941919
0.00979941
0.0096906
0.00937799
0.00901954
0.00816394
0.00816774
0.00702035
0.00757325
0.00807167
0.00881687
0.00954378
0.00983047
0.010064
0.00986996
0.00866482
0.00809855
0.00417698
0.00399677
0.00386765
0.00378897
0.00397686
0.00453958
0.00518206
0.00569858
0.00619978
0.00630572
0.00430681
0.00407313
0.00395141
0.00392855
0.00410012
0.00468741
0.00548513
0.00597104
0.00612341
0.00617478
0.00437433
0.00416698
0.00401826
0.00402796
0.00420558
0.0047663
0.00565441
0.00617243
0.00638187
0.00672639
0.00447176
0.00431473
0.00416074
0.0041448
0.00431644
0.00482823
0.00578137
0.00642538
0.00669569
0.00709755
0.00451518
0.00440492
0.00432464
0.00431048
0.00442693
0.00485041
0.00579248
0.00652843
0.00675596
0.00706075
0.00453305
0.00446048
0.00442631
0.00442202
0.00454013
0.00484721
0.005717
0.00653987
0.00674626
0.00695144
0.00457461
0.00447591
0.0044922
0.00455553
0.00464074
0.00485175
0.0054487
0.00649141
0.00671031
0.00705423
0.00466273
0.00454153
0.00452649
0.0046231
0.00474854
0.00490811
0.00521128
0.00618278
0.00658492
0.00700634
0.00456639
0.00453199
0.00455657
0.00475786
0.00494733
0.00509184
0.00523123
0.00556022
0.00601305
0.00655642
0.00465206
0.00469031
0.00498293
0.00536612
0.00577694
0.00606794
0.00603045
0.00589153
0.00606755
0.00624934
0.00440726
0.00436872
0.00409832
0.00370954
0.00353944
0.00347551
0.00348345
0.00351817
0.00347176
0.00337997
0.00430762
0.00438458
0.00421521
0.00396713
0.00378937
0.00357641
0.00332069
0.00327475
0.0030712
0.0029842
0.00413978
0.00427245
0.0041646
0.00395166
0.0037901
0.00361677
0.00321336
0.003113
0.00299448
0.00296189
0.0036395
0.00390765
0.00397587
0.00384051
0.00365041
0.00357837
0.00324888
0.00312127
0.00299651
0.00296434
0.00355379
0.00347161
0.00360158
0.00363112
0.00356885
0.00353905
0.00342184
0.00316872
0.00301529
0.00302188
0.00354651
0.00333335
0.00333007
0.00335248
0.00347458
0.00346951
0.00345363
0.00333473
0.00310229
0.00305265
0.00349718
0.00330163
0.00328369
0.00328712
0.00322734
0.00317916
0.00316826
0.00329064
0.00317195
0.00308095
0.00342664
0.00321089
0.0029756
0.00282469
0.00278628
0.00276983
0.00290371
0.00318508
0.00311213
0.00304733
0.00308344
0.00288059
0.0027937
0.00276909
0.00280113
0.00280478
0.00294899
0.00309367
0.00319605
0.00314429
0.00274751
0.00269033
0.00266381
0.00268814
0.00279278
0.00288183
0.00291245
0.00325067
0.00347105
0.00309969
0.001425
0.00144083
0.00149027
0.00153368
0.00155323
0.00158048
0.00159366
0.00159751
0.0015733
0.0015575
0.00141772
0.00144153
0.00147473
0.00148673
0.00151809
0.00157572
0.0016019
0.00162098
0.00164817
0.00165892
0.00138991
0.00140095
0.00141439
0.00140628
0.00142567
0.00148628
0.00155559
0.00158498
0.00160286
0.00160947
0.00139333
0.00139325
0.00139434
0.00139347
0.00139399
0.00140488
0.00146209
0.001476
0.0014792
0.00146546
0.00143804
0.00141939
0.00140467
0.00139743
0.00139497
0.00139742
0.00141211
0.00144598
0.00145384
0.00144127
0.00146458
0.00145409
0.00144165
0.00142701
0.00141438
0.00140318
0.00140588
0.00141372
0.00142609
0.0014257
0.00145779
0.00145276
0.00144604
0.00143713
0.00143085
0.00142061
0.0014123
0.00141385
0.00141763
0.00142139
0.00141189
0.00142861
0.0014386
0.0014362
0.00143167
0.00142489
0.00141878
0.00141793
0.00141696
0.0014157
0.00139831
0.00142667
0.00143317
0.0014327
0.00142971
0.00142391
0.00141938
0.00141206
0.00139628
0.00140825
0.00139169
0.00141848
0.00142199
0.00142222
0.00142135
0.00141889
0.00141506
0.00141304
0.0014287
0.00144828
0.00120882
0.00120424
0.0012312
0.00124454
0.00128108
0.00129397
0.00129782
0.00130805
0.00131248
0.00132534
0.00124142
0.00122816
0.00123782
0.00124318
0.00126941
0.00127619
0.00130267
0.00130432
0.00131093
0.00133833
0.0013357
0.00129601
0.00127178
0.00126571
0.00128696
0.0013187
0.0013179
0.00131625
0.00132751
0.00134009
0.00136991
0.0013871
0.00137888
0.00136218
0.00135247
0.00135433
0.0013458
0.00134201
0.00133378
0.00133169
0.00125762
0.00128761
0.00134776
0.00138644
0.00141305
0.00141806
0.0013831
0.00135834
0.00134428
0.00132764
0.00134925
0.001347
0.0013531
0.00137377
0.00141022
0.00143967
0.00144405
0.00140718
0.00136809
0.00134302
0.00142872
0.00142894
0.0014197
0.00140148
0.0014107
0.00143501
0.00145816
0.0014567
0.00141243
0.00139795
0.00141984
0.00142547
0.00142366
0.00141891
0.00142099
0.00143598
0.00146964
0.00146898
0.0014277
0.00141305
0.00143277
0.00144078
0.00142933
0.00142691
0.00143079
0.00145349
0.00148389
0.00143384
0.00142678
0.00139628
0.00139263
0.00144882
0.00144265
0.00144559
0.00145687
0.00147816
0.0014296
0.00141422
0.00139399
0.0013498
0.00121095
0.00123907
0.0013577
0.00135977
0.0013833
0.00148897
0.00156804
0.00157958
0.0015714
0.00154737
0.00131569
0.00132422
0.00133023
0.00130681
0.00133124
0.00139176
0.00141778
0.0014127
0.0013854
0.00135923
0.00133473
0.00132218
0.00130639
0.00131075
0.00134281
0.00136862
0.0013749
0.00135926
0.00132685
0.00128976
0.00136273
0.00133378
0.00132776
0.0013389
0.00136968
0.00137745
0.0013752
0.00135772
0.00132075
0.00126826
0.0013989
0.00136463
0.00135818
0.0013635
0.00138936
0.00139809
0.00139745
0.00138101
0.00133268
0.00126834
0.00145071
0.0013974
0.00138496
0.00138264
0.00139502
0.00141005
0.00140952
0.00139616
0.00135614
0.00130281
0.0014956
0.00144899
0.00140118
0.00139502
0.00140592
0.0014235
0.0014247
0.00142468
0.00141289
0.00137382
0.00154291
0.00146369
0.00141859
0.00141066
0.00142225
0.00145682
0.00148648
0.0014977
0.00147436
0.00140222
0.00153821
0.00145478
0.0014101
0.00140376
0.00142685
0.00148843
0.00151302
0.00151467
0.00147005
0.00139585
0.00150247
0.00142263
0.00138856
0.00138721
0.00141778
0.00147002
0.00148506
0.00146386
0.00138808
0.00133266
0.0043769
0.00436972
0.00438484
0.00441189
0.00442934
0.00441167
0.00438037
0.00437572
0.00438859
0.00447043
0.0043582
0.00436158
0.00435133
0.00434095
0.0043376
0.00432545
0.00429388
0.00429012
0.0042963
0.00431619
0.00428228
0.0043416
0.00435933
0.00435447
0.0043396
0.00431356
0.00427714
0.00424628
0.00424598
0.00425728
0.00417619
0.00427334
0.00434139
0.0043721
0.00436979
0.00434579
0.00429759
0.00425308
0.00423881
0.00424257
0.004122
0.00419966
0.00429963
0.00437243
0.00439937
0.00439612
0.00436984
0.00430218
0.00426136
0.00424856
0.00414185
0.00418323
0.00428832
0.0043769
0.00443151
0.00444209
0.00443395
0.00440051
0.00432915
0.00427811
0.00422799
0.00424715
0.00431944
0.00441412
0.00449072
0.00452095
0.00451632
0.00448893
0.00442169
0.00435318
0.00438047
0.00438344
0.00441627
0.00449895
0.00457745
0.00460897
0.00460448
0.00457483
0.00450296
0.0044179
0.00456268
0.00456092
0.00458117
0.00463185
0.00467521
0.00467692
0.00466471
0.00462444
0.0045578
0.00447088
0.00480044
0.00474443
0.00474608
0.00476722
0.00476431
0.00475111
0.00472034
0.00465608
0.00457975
0.00451061
0.00412953
0.00416284
0.00420623
0.00424864
0.00429486
0.00430658
0.0043041
0.00430784
0.00432194
0.00439563
0.00410879
0.00415227
0.00416208
0.00417322
0.00418772
0.00419425
0.0041951
0.00420023
0.00421714
0.00423282
0.00401965
0.00412847
0.00417445
0.00418113
0.00418203
0.00417904
0.00416802
0.00415885
0.00416157
0.00417524
0.00391225
0.00404312
0.00415258
0.00421109
0.00421681
0.00421039
0.00419187
0.00416969
0.00416421
0.00417383
0.00386389
0.00396274
0.00409668
0.00420017
0.00426901
0.00428062
0.00427025
0.00423536
0.00420052
0.0041965
0.00390178
0.00395143
0.00408471
0.00420917
0.00430251
0.00435862
0.00436359
0.00435269
0.00431412
0.0042736
0.00400844
0.00403569
0.00412802
0.00426581
0.00437505
0.00444208
0.0044619
0.00445804
0.00443512
0.0043734
0.00417243
0.00418463
0.00422704
0.00433549
0.00445135
0.00453378
0.00456183
0.00455836
0.00453163
0.00445508
0.00436134
0.00436318
0.00437837
0.00443571
0.00453118
0.00459599
0.00461671
0.00461031
0.00458361
0.0045124
0.00459657
0.00454694
0.00453654
0.00455807
0.00461835
0.00465465
0.0046521
0.00463594
0.00458905
0.00452977
0.00386261
0.00392835
0.00399305
0.00403789
0.00409553
0.00413707
0.00416567
0.00419468
0.00422277
0.00429287
0.00385184
0.00391532
0.00394455
0.00397915
0.00401154
0.00403517
0.00405706
0.0040774
0.00411122
0.00413863
0.00379113
0.00389732
0.00395014
0.0039767
0.0040043
0.00402897
0.00404191
0.00405456
0.00406824
0.00409634
0.00368091
0.0038474
0.0039492
0.00400864
0.00405169
0.00406813
0.0040728
0.00407795
0.00408605
0.00410628
0.00364373
0.00375407
0.00393649
0.00405391
0.00412379
0.00417263
0.004183
0.00417618
0.00416126
0.00416931
0.00369476
0.00375582
0.00391551
0.00408849
0.00421163
0.00428367
0.00432199
0.0043319
0.00432191
0.00429486
0.00380326
0.00385032
0.00397664
0.00415355
0.00430188
0.00439895
0.00445806
0.00446804
0.00446136
0.00442943
0.00397476
0.0040106
0.00410008
0.0042292
0.00436803
0.0044851
0.0045549
0.00457377
0.00456972
0.00453895
0.00417804
0.00420017
0.0042425
0.00430501
0.00440608
0.00452591
0.00459552
0.00460968
0.00460453
0.00458139
0.00444386
0.00442169
0.00438228
0.00438188
0.00441476
0.00451216
0.00457941
0.00459471
0.00458082
0.00454347
0.0035956
0.00369301
0.00375559
0.0038151
0.00387752
0.00392907
0.00398436
0.0040327
0.00411197
0.00418461
0.00360001
0.0036735
0.003722
0.00376725
0.00381519
0.00385815
0.00390767
0.00394426
0.00400334
0.00403961
0.00356645
0.00367053
0.00373553
0.00378005
0.00382427
0.00386482
0.0039094
0.00394335
0.00397994
0.00401952
0.00350165
0.00364403
0.00375167
0.00382958
0.00389495
0.00393585
0.00396768
0.00399135
0.00401526
0.00405029
0.0034626
0.00361586
0.00378146
0.00390544
0.00400315
0.00408324
0.00413018
0.00415165
0.00415716
0.0041731
0.00352256
0.00361462
0.0038215
0.00401399