/*--------------------------------*- C++ -*----------------------------------*\
  =========                 |
  \\      /  F ield         | OpenFOAM: The Open Source CFD Toolbox
   \\    /   O peration     | Website:  https://openfoam.org
    \\  /    A nd           | Version:  9
     \\/     M anipulation  |
\*---------------------------------------------------------------------------*/
FoamFile
{
    format      ascii;
    class       volScalarField;
    location    "79";
    object      f8.gas;
}
// * * * * * * * * * * * * * * * * * * * * * * * * * * * * * * * * * * * * * //

dimensions      [0 0 0 0 0 0 0];

internalField   nonuniform List<scalar> 
137980
(
0.00614262
0.00633742
0.00679406
0.00741157
0.00801742
0.00835882
0.00844907
0.00847887
0.00861363
0.00876159
0.00592685
0.00611209
0.00651718
0.00711608
0.00789283
0.00843587
0.00856657
0.00857958
0.00865673
0.00878859
0.0058551
0.00598074
0.00625639
0.00672634
0.00736705
0.0081995
0.00862986
0.00868868
0.00864517
0.00854042
0.00571473
0.00579724
0.00598166
0.00632954
0.00681079
0.00739561
0.00808097
0.00849907
0.00854622
0.00831552
0.00559414
0.00564002
0.00575887
0.00597856
0.00632795
0.00673823
0.00720032
0.00765211
0.00791939
0.0078675
0.00549045
0.00550234
0.00557104
0.00570429
0.00592655
0.00621709
0.00652835
0.00683727
0.00705593
0.00709816
0.00542739
0.0054093
0.00543131
0.00551597
0.00562762
0.00582307
0.00604746
0.00625955
0.00643175
0.00652484
0.0054111
0.00536927
0.0053671
0.0054021
0.0054822
0.00556844
0.00570986
0.00587755
0.00601723
0.00612541
0.00544304
0.00537737
0.00535607
0.00536169
0.00540875
0.00549402
0.00557625
0.0056745
0.00575687
0.00585756
0.00555734
0.0054549
0.00541548
0.00540425
0.00541534
0.00546322
0.00556346
0.00565746
0.00572958
0.00583368
0.00593735
0.00621415
0.00668966
0.00728183
0.00790343
0.00829916
0.00844568
0.00854538
0.00882308
0.00912696
0.00577639
0.00603851
0.0064496
0.00710994
0.00791924
0.0084098
0.00855372
0.00860654
0.00880374
0.00906219
0.00570593
0.00590597
0.00625467
0.00677273
0.0075149
0.00836653
0.00867058
0.00873046
0.00878434
0.00894256
0.00556667
0.00570087
0.00595905
0.00637758
0.00695302
0.00772184
0.00846745
0.00869678
0.00873771
0.00863047
0.00545228
0.00553592
0.00570036
0.00600944
0.00642642
0.00696456
0.00763455
0.00825744
0.00843228
0.00832857
0.00536129
0.00540122
0.00548371
0.00569179
0.00597879
0.00635396
0.00678752
0.00724539
0.00756381
0.00760084
0.00530553
0.00530324
0.0053484
0.00543601
0.00564281
0.00588239
0.00617704
0.00647811
0.00672602
0.00685161
0.0053016
0.00525569
0.00527417
0.00530807
0.00539599
0.00557176
0.00575328
0.00595596
0.00613033
0.006265
0.00534833
0.00526697
0.0052518
0.00527924
0.00529958
0.00537413
0.0055077
0.00565065
0.00576808
0.00588426
0.00546637
0.00535178
0.00529605
0.00529781
0.0053216
0.00535518
0.00540938
0.00551285
0.00559667
0.00573229
0.00586014
0.00616735
0.00662814
0.00721295
0.00786082
0.00831245
0.00857784
0.00880402
0.00927883
0.0102659
0.00580365
0.00605863
0.00647566
0.00716058
0.00796463
0.00848852
0.00875161
0.00917913
0.00973823
0.0104191
0.00564232
0.0059191
0.00631474
0.00693119
0.00779255
0.00856616
0.00888614
0.00919019
0.00980069
0.0103847
0.00551264
0.00570167
0.00602588
0.00655313
0.00731475
0.00825018
0.00887675
0.00917188
0.0096158
0.00993543
0.00537007
0.00549401
0.00575104
0.00615358
0.00673703
0.00753805
0.00848853
0.00899266
0.00923983
0.00931912
0.00527822
0.00531364
0.00549991
0.00577741
0.00620688
0.00679201
0.0075114
0.00825335
0.00860318
0.00870346
0.00521902
0.00520526
0.00528222
0.00547932
0.00576698
0.00616144
0.00665719
0.00719721
0.00761554
0.00782213
0.00518197
0.0051452
0.00515105
0.00527048
0.00544904
0.00570241
0.00601748
0.00635787
0.00665194
0.00687895
0.00517068
0.00512608
0.00511593
0.00513982
0.0052674
0.00542312
0.0056168
0.00582211
0.00598631
0.00614156
0.00524068
0.00515744
0.00514189
0.00514871
0.00518025
0.00528177
0.00543161
0.0055684
0.00566983
0.00579019
0.00593181
0.00619595
0.00656902
0.00709751
0.00769305
0.00820599
0.00852459
0.0085297
0.00922037
0.00962954
0.00591635
0.0061191
0.00651709
0.00714379
0.00792347
0.00858851
0.00896958
0.00920499
0.00969778
0.0102705
0.00567098
0.00597097
0.0064504
0.00714145
0.00802358
0.00886453
0.00933709
0.0097478
0.0103211
0.0107334
0.00556539
0.00576725
0.00620973
0.00690046
0.00785602
0.00892571
0.00965674
0.0101077
0.0107419
0.0110483
0.00537872
0.00554985
0.00591986
0.00652363
0.00743467
0.00859957
0.00964305
0.0102358
0.0107885
0.011194
0.00521682
0.00534313
0.00561461
0.00607636
0.00682133
0.00790683
0.00920961
0.0101024
0.0106983
0.0111062
0.00511004
0.00516251
0.00534949
0.00569236
0.00622169
0.0069874
0.00805686
0.0093578
0.0101697
0.0106339
0.00503969
0.00503551
0.0051616
0.00537728
0.00575052
0.00628659
0.00697159
0.00772118
0.00851771
0.00918531
0.00502784
0.00498958
0.00502991
0.00517983
0.00541929
0.00578484
0.00622585
0.00666013
0.00699125
0.00736148
0.005131
0.00502126
0.00500683
0.00508134
0.0052344
0.00546599
0.00580466
0.00608265
0.00624257
0.00622167
0.00603443
0.00628066
0.00651361
0.00689599
0.00735169
0.00791564
0.00832453
0.00868569
0.0096243
0.00937035
0.00592773
0.00613607
0.00649911
0.00706431
0.00775203
0.00840084
0.00887208
0.00924822
0.0100141
0.0101089
0.00566069
0.00600399
0.00653748
0.00722807
0.00810469
0.00889139
0.0093701
0.00984093
0.0105561
0.0108371
0.0055695
0.00586439
0.00643946
0.00726313
0.00827801
0.00927035
0.00988993
0.0103644
0.0111497
0.0115152
0.00536746
0.00567823
0.00623258
0.00708058
0.00823035
0.00944388
0.0103413
0.0108655
0.0114941
0.0117918
0.00520535
0.00542823
0.00590707
0.00673818
0.00791781
0.00928639
0.0104543
0.0112153
0.0118009
0.0120779
0.00508957
0.00520903
0.00556009
0.00624376
0.00735567
0.00880802
0.010228
0.0112345
0.0120521
0.012688
0.00503422
0.00505203
0.00528425
0.00578054
0.00663176
0.00787407
0.00945178
0.010837
0.0118319
0.0125384
0.00505473
0.00499746
0.00509184
0.0054431
0.00607324
0.00696899
0.0080186
0.00930175
0.0103752
0.0109907
0.00520075
0.00505361
0.00504206
0.00520779
0.00564353
0.0063999
0.00728437
0.0079781
0.007948
0.0075709
0.00623939
0.0064756
0.0065342
0.00669312
0.00701818
0.00760229
0.0084523
0.00933331
0.0092571
0.00934522
0.00593125
0.00617342
0.00650595
0.00698581
0.0076392
0.00841435
0.00907105
0.00981436
0.0103389
0.0103149
0.00563261
0.00606439
0.0066116
0.00733065
0.00821434
0.00908282
0.00972812
0.0104458
0.0112814
0.0113361
0.00554698
0.0059554
0.00660889
0.00748839
0.00859196
0.00966702
0.0104693
0.0112285
0.0121446
0.0123345
0.00540303
0.00582624
0.0065021
0.00750519
0.00877827
0.0100979
0.0111047
0.011906
0.0128382
0.013168
0.00529357
0.00561608
0.00628689
0.00737437
0.00881876
0.0103475
0.011613
0.0126797
0.0135169
0.0138196
0.00524939
0.00539252
0.00600751
0.00710378
0.00866499
0.0104452
0.0121504
0.0131993
0.0139637
0.0142425
0.00538731
0.00526915
0.00568966
0.00673728
0.00830253
0.0102686
0.0124523
0.0141349
0.0150175
0.0154304
0.0057032
0.00537544
0.00544429
0.00628139
0.00774427
0.00968123
0.0121567
0.014044
0.0151941
0.0166284
0.00585714
0.00549431
0.00539125
0.00586999
0.00708793
0.00893808
0.0110878
0.0129179
0.0131882
0.0125987
0.00653538
0.00655955
0.00658347
0.00672289
0.00706295
0.00790253
0.0102081
0.0104318
0.00927815
0.0118475
0.00597828
0.00627703
0.00663068
0.00718138
0.00799343
0.00949728
0.0113698
0.0114128
0.0101501
0.012141
0.00574764
0.00628569
0.00694678
0.00783248
0.00904082
0.0109737
0.0121966
0.0123239
0.0111412
0.0125146
0.00570665
0.00629747
0.00718975
0.00837114
0.00993472
0.0120825
0.0130234
0.0132212
0.0121856
0.0130354
0.00570042
0.00632481
0.00736246
0.00882762
0.0108522
0.0129451
0.0137698
0.0140207
0.0132569
0.0135555
0.0057631
0.00627768
0.00744007
0.0092289
0.0117535
0.0137409
0.0145593
0.0148431
0.0143734
0.0143457
0.00594651
0.00620341
0.00744763
0.00962458
0.0127011
0.0145803
0.0153766
0.0156371
0.0153269
0.0151082
0.00643349
0.00617233
0.00732622
0.00994071
0.0134708
0.0154614
0.0162921
0.0165897
0.0163659
0.0160981
0.00681484
0.00648527
0.00717296
0.00994282
0.014036
0.0160946
0.0170457
0.0174564
0.0174661
0.017358
0.00704777
0.0066766
0.00717164
0.00969132
0.0140162
0.0167108
0.0187882
0.0197761
0.02029
0.0199733
0.00680589
0.00671631
0.00677892
0.00708178
0.00756564
0.00970075
0.00970385
0.00936107
0.0131893
0.0269935
0.00627168
0.00674056
0.0075028
0.00875457
0.0102047
0.0110372
0.0108432
0.0108664
0.0170044
0.0273118
0.00642053
0.00738107
0.0089893
0.0107516
0.0116867
0.0120172
0.0118939
0.0126178
0.0207015
0.0269431
0.00663523
0.00802967
0.0103239
0.0119842
0.012692
0.0129053
0.0130059
0.0145197
0.0225277
0.0256772
0.00693611
0.00859625
0.0112571
0.0128762
0.0135299
0.0137796
0.0139783
0.0158952
0.0230617
0.025407
0.00726324
0.00893754
0.0118801
0.0136071
0.0143115
0.014642
0.0149041
0.0165962
0.0229677
0.0250295
0.00758949
0.00906318
0.012331
0.014259
0.015024
0.0153798
0.0155466
0.0167059
0.0224597
0.0245166
0.00796741
0.00891044
0.0124881
0.0147472
0.0156821
0.0161497
0.0163215
0.0169406
0.0217499
0.0234195
0.00841408
0.00898032
0.0125038
0.0151621
0.0163181
0.0167707
0.0169132
0.0172216
0.0204391
0.0228335
0.0096895
0.00949305
0.0127542
0.0155809
0.0167461
0.0174269
0.0177881
0.0178374
0.0195738
0.0216495
0.00711106
0.0071297
0.00729615
0.00743142
0.00796443
0.00918153
0.00968008
0.0139469
0.0301772
0.0313582
0.00722095
0.00795665
0.00845636
0.00888982
0.00989496
0.0105759
0.0119598
0.0221908
0.0290177
0.0240401
0.00842495
0.00955459
0.0102744
0.0107701
0.0115879
0.0126342
0.0169394
0.0246383
0.025278
0.0158363
0.00933508
0.0108935
0.0116408
0.012142
0.0130729
0.0152439
0.0215734
0.0240587
0.0193515
0.0126048
0.0103194
0.0119441
0.0127508
0.0133946
0.0147325
0.0180918
0.0222971
0.0226732
0.0156505
0.0111382
0.0110962
0.0128469
0.0136845
0.0144925
0.016197
0.0199084
0.0221981
0.0210789
0.0137798
0.0107669
0.0116784
0.0133986
0.0143219
0.0153794
0.0172838
0.0206904
0.0219638
0.0200313
0.0133475
0.0108929
0.0120421
0.0139252
0.0149978
0.0161511
0.0180524
0.0209022
0.0216156
0.019478
0.0135073
0.0112893
0.0121876
0.0140288
0.0152676
0.0165582
0.0184414
0.0208812
0.0215136
0.0195719
0.0139176
0.0117601
0.0125197
0.014319
0.0157314
0.0170755
0.0186734
0.0207954
0.021322
0.0200979
0.0150917
0.012753
0.00817489
0.0082069
0.00805064
0.00829015
0.00943272
0.0110604
0.0183664
0.0292136
0.0287531
0.0270058
0.00834161
0.0087743
0.00891513
0.00976377
0.0114595
0.0152485
0.0256996
0.0285294
0.0257941
0.0223681
0.00922258
0.00996171
0.0103603
0.0115042
0.0144806
0.0227571
0.0262943
0.0260891
0.0190233
0.0160682
0.0105534
0.0112446
0.0120364
0.013948
0.0192082
0.0248324
0.025489
0.0208275
0.0148756
0.0126751
0.0115879
0.0123408
0.0135697
0.0164579
0.0225111
0.0246787
0.0237838
0.0162441
0.0126188
0.0109789
0.012668
0.013552
0.0152132
0.0188805
0.0234335
0.0241754
0.020562
0.0139002
0.0113605
0.0101431
0.0133043
0.014341
0.0162601
0.0203564
0.0233831
0.0234255
0.018546
0.0127497
0.0106791
0.00973077
0.0139919
0.0152038
0.017291
0.0212971
0.0232802
0.0225722
0.0168936
0.01207
0.0103186
0.00956872
0.0143095
0.0154393
0.017511
0.021389
0.023061
0.0222626
0.0167948
0.012078
0.0102372
0.00957097
0.0146365
0.0159251
0.0180433
0.0215837
0.0229392
0.0224012
0.0176117
0.0124245
0.0102788
0.00967986
0.00877059
0.00881765
0.00880543
0.00940951
0.0109856
0.0135381
0.0226187
0.0246967
0.0234641
0.0238784
0.00883229
0.00914382
0.00940647
0.0105543
0.0129626
0.0172751
0.024716
0.0254867
0.0248554
0.0248913
0.00932166
0.00988638
0.0105125
0.0120699
0.015337
0.0225148
0.0255406
0.0254227
0.0244444
0.0239701
0.0105063
0.0110943
0.0119088
0.0140573
0.0195765
0.0247902
0.0257222
0.024947
0.0231337
0.0202985
0.011665
0.0120797
0.0134403
0.0168876
0.0231536
0.0254816
0.0255644
0.0238454
0.0203855
0.0168516
0.0129384
0.013584
0.0155016
0.0199203
0.0246583
0.0255727
0.024884
0.0216102
0.0177376
0.014467
0.0137552
0.0144763
0.0169195
0.022492
0.0252347
0.0255221
0.0241552
0.0200738
0.016265
0.0135748
0.014439
0.015661
0.0187259
0.0238233
0.0254093
0.0253605
0.0230053
0.0188564
0.0154572
0.0126074
0.0149038
0.0159872
0.0193743
0.024316
0.0255424
0.0253964
0.0228371
0.0185914
0.0148415
0.0124132
0.0152848
0.0167276
0.0203488
0.0248019
0.0256822
0.0254984
0.0234755
0.0190528
0.0148025
0.0117779
0.00998868
0.0101511
0.0104904
0.0114361
0.0123264
0.0147749
0.0176066
0.0166428
0.0166985
0.0171387
0.0103614
0.0107083
0.0113081
0.0125747
0.013861
0.0162378
0.0181581
0.017293
0.0171034
0.0173561
0.0116503
0.0117635
0.0125472
0.0139378
0.0156003
0.0178345
0.0187357
0.017552
0.0173002
0.0178261
0.0137536
0.0135355
0.0142455
0.0157691
0.0178638
0.0188699
0.0189458
0.0176675
0.0176667
0.0185369
0.0163231
0.0157029
0.0163953
0.018065
0.0193494
0.0196414
0.0189527
0.0179477
0.0181363
0.0192366
0.0181664
0.0179239
0.0186643
0.0198304
0.0205907
0.020078
0.0191508
0.0186098
0.0191567
0.0206462
0.0191007
0.0190098
0.0199398
0.0213518
0.0217264
0.0209411
0.0197156
0.0195997
0.0201607
0.0222972
0.0204667
0.020418
0.0213146
0.0229248
0.0230156
0.0219265
0.0210786
0.0210398
0.0218854
0.022764
0.0206839
0.020781
0.0216455
0.0236627
0.0242882
0.0238649
0.022377
0.022392
0.022658
0.0237467
0.0210722
0.02149
0.0224276
0.0243781
0.0253228
0.025317
0.0249092
0.0236853
0.0242894
0.0232625
0.0185052
0.0203929
0.0209516
0.0216944
0.0219441
0.0219244
0.019547
0.0180797
0.0179154
0.0177984
0.0195376
0.0196846
0.0205236
0.0216837
0.0224114
0.0230659
0.023098
0.0214965
0.02034
0.0197097
0.0199625
0.0199707
0.0204369
0.0214115
0.0221743
0.0231071
0.0243174
0.0242856
0.0233767
0.0214597
0.0202946
0.020096
0.020361
0.0212762
0.0219174
0.0226452
0.0238214
0.0253802
0.0252153
0.0241366
0.0195524
0.0192655
0.0195431
0.0205191
0.0215572
0.022484
0.0231828
0.0250727
0.0261499
0.0254573
0.0181651
0.0184839
0.019223
0.020338
0.0211779
0.0219372
0.0227133
0.0245211
0.0266295
0.0253896
0.0176088
0.0182246
0.0191736
0.0203349
0.0210264
0.0217331
0.0223818
0.0236817
0.026765
0.0255749
0.0172114
0.0181656
0.0192032
0.0203478
0.020941
0.0217738
0.0223092
0.0233704
0.0266533
0.0259603
0.0171266
0.0184365
0.0195076
0.0205905
0.0213325
0.0229169
0.0230929
0.0236119
0.0262622
0.0267624
0.0177771
0.0193501
0.0204543
0.0214229
0.0237156
0.0259268
0.0257482
0.024586
0.0265902
0.0262257
0.0176239
0.0177786
0.0175914
0.0175173
0.0176097
0.0179545
0.0185698
0.0188476
0.0188849
0.0190729
0.0165241
0.0162433
0.0162423
0.0163469
0.0166897
0.0172561
0.0177811
0.0182966
0.0185881
0.0192045
0.0158399
0.0155103
0.0155349
0.0158517
0.0163513
0.0169068
0.0174435
0.0179948
0.0183543
0.0191464
0.0147198
0.0147629
0.0150713
0.0157301
0.0162516
0.0168081
0.0173213
0.0178364
0.0182383
0.0191335
0.0141516
0.0145042
0.0150371
0.0157821
0.0164088
0.0171298
0.0174899
0.0178227
0.0182139
0.0191755
0.0139089
0.0145744
0.0153061
0.0164608
0.0174195
0.0183004
0.0186309
0.0185969
0.0186557
0.019771
0.014106
0.0151528
0.0163903
0.0179851
0.019407
0.02011
0.0200047
0.0197025
0.0192868
0.0201592
0.0153465
0.0164887
0.0183061
0.0206195
0.0212552
0.0210295
0.0204959
0.0200485
0.0196675
0.0203277
0.0162779
0.0177657
0.0207797
0.022232
0.0219558
0.0213047
0.0204386
0.0197058
0.0195796
0.020962
0.0165435
0.0191175
0.022229
0.0229369
0.0221448
0.0212012
0.0199342
0.019706
0.0198839
0.0198734
0.0172352
0.0173732
0.0173216
0.0172409
0.0171266
0.0169753
0.01676
0.0165871
0.0162333
0.0145039
0.0171547
0.0172949
0.0172423
0.0171251
0.0169198
0.0166381
0.0164634
0.0162717
0.0157533
0.0148729
0.0171228
0.017283
0.0172241
0.0170923
0.0168253
0.0164621
0.0162178
0.0158902
0.0149896
0.0141751
0.0171082
0.0173079
0.0172476
0.0170938
0.0167852
0.0163992
0.0160136
0.0152961
0.0139568
0.0130308
0.0171254
0.0174077
0.0173777
0.0172496
0.0169225
0.0164114
0.0154694
0.0139527
0.0123864
0.0110532
0.0171958
0.0174985
0.0175086
0.0174862
0.0172098
0.0162311
0.0142376
0.0122678
0.0107551
0.00986106
0.0172294
0.0176117
0.0177045
0.0179963
0.0174036
0.0151242
0.0129028
0.0111969
0.00997984
0.00930235
0.0172627
0.0176736
0.0178149
0.0183642
0.0173145
0.0141698
0.0122159
0.0107281
0.00969426
0.00914727
0.0172233
0.0176879
0.0178438
0.0184026
0.0167446
0.0134076
0.0118133
0.0106802
0.0101425
0.00975373
0.0170571
0.0176087
0.0172097
0.0176043
0.0156087
0.0130656
0.0120165
0.0111429
0.010649
0.0101271
0.0166591
0.0162575
0.0156787
0.0151262
0.0145895
0.0141516
0.0130502
0.0123276
0.013373
0.0132852
0.0165539
0.0162135
0.0155511
0.0148869
0.0142637
0.0136911
0.0125135
0.012201
0.0128289
0.0127484
0.0160379
0.0156847
0.015002
0.0143811
0.0138073
0.0131103
0.0121462
0.011704
0.0125057
0.0126476
0.0157881
0.0154559
0.0147456
0.0141344
0.0135393
0.0127346
0.0117888
0.0113277
0.0118252
0.0122727
0.01541
0.0149849
0.0142858
0.0137865
0.0131663
0.0122165
0.0113803
0.0110361
0.0112234
0.0114747
0.0151243
0.0146529
0.014051
0.0136141
0.0128603
0.0117248
0.0110615
0.0107554
0.010717
0.0106595
0.014788
0.014141
0.0136593
0.0133388
0.0124201
0.0114348
0.0108353
0.0104716
0.0102473
0.00999564
0.0144142
0.0137334
0.0133141
0.0130412
0.012246
0.0112617
0.010677
0.0102134
0.00985416
0.00956181
0.0140406
0.0131876
0.0127389
0.0127392
0.0121389
0.0111713
0.0106341
0.0101488
0.00978386
0.0094235
0.0136671
0.0127546
0.0123973
0.0124154
0.0118402
0.0111963
0.0106948
0.010183
0.00971799
0.00913021
0.0146545
0.0152349
0.0151171
0.0149612
0.0147826
0.0151945
0.0156288
0.0169143
0.0171884
0.0141415
0.0143314
0.0150837
0.0150914
0.0148661
0.014371
0.0145919
0.0150946
0.0159041
0.0172348
0.0162246
0.0140519
0.0149081
0.0149106
0.0146828
0.0140748
0.0140589
0.0144369
0.0149128
0.0164361
0.0166629
0.013956
0.0148441
0.0148387
0.0145303
0.0137612
0.0134585
0.0137666
0.0143447
0.0156349
0.0163493
0.0139298
0.0148076
0.0146931
0.0142014
0.0133226
0.0128462
0.01317
0.0138594
0.0153152
0.0162421
0.0143917
0.0147666
0.0144848
0.0137086
0.012792
0.0122631
0.0125933
0.0134525
0.0153374
0.015644
0.0146079
0.014519
0.0140464
0.0130345
0.0121389
0.0116503
0.0119979
0.0131338
0.0153992
0.0142522
0.0146333
0.0142291
0.0134092
0.0123651
0.0114725
0.0110161
0.0113285
0.0125092
0.0152232
0.0149719
0.0142493
0.0135724
0.0128121
0.0116631
0.0106989
0.0103227
0.0105472
0.0113702
0.0139719
0.0149647
0.01374
0.0132476
0.0121724
0.0108526
0.00992475
0.0096971
0.00986842
0.010509
0.0125593
0.0127407
0.0131053
0.0149079
0.0167636
0.0177448
0.0180015
0.0178439
0.015646
0.0147577
0.0143632
0.0131631
0.0131002
0.0134523
0.0146547
0.0161315
0.0178801
0.0185563
0.0178622
0.0143825
0.013353
0.0126352
0.0121676
0.0128793
0.0137671
0.0147667
0.0157958
0.0182322
0.0193224
0.0172301
0.0136942
0.0127082
0.0117817
0.0123666
0.0133762
0.0142783
0.014991
0.0160526
0.0185956
0.0209772
0.0150938
0.0131968
0.0115888
0.012206
0.0132747
0.0141492
0.014668
0.0153118
0.0165756
0.0201883
0.0185227
0.0142326
0.0115044
0.0123729
0.0137299
0.014504
0.014622
0.0149407
0.0158117
0.0183259
0.01972
0.0163342
0.0117327
0.0129548
0.0142607
0.0147702
0.0148488
0.014811
0.0152263
0.0165707
0.0195856
0.016733
0.0125567
0.0138867
0.0151476
0.0152519
0.0150387
0.0145496
0.0147614
0.0156802
0.0189396
0.0180452
0.013836
0.0154008
0.0157557
0.0154365
0.0149826
0.0141547
0.0142612
0.014893
0.0173372
0.0182391
0.0156533
0.0162551
0.0159628
0.0152277
0.0142653
0.0132932
0.0134005
0.0138884
0.0150834
0.0144638
0.01074
0.00937486
0.00885997
0.00898535
0.00919728
0.00966424
0.0104117
0.0106738
0.0107853
0.0113638
0.0104309
0.00944097
0.00949753
0.0104374
0.011218
0.0115281
0.0115638
0.0115329
0.0117219
0.0119101
0.0100143
0.00995933
0.0113424
0.0123512
0.0127053
0.0128078
0.0128409
0.0129982
0.0133537
0.0136774
0.0105435
0.0116276
0.0129762
0.0133897
0.0134777
0.0134655
0.0133438
0.0133034
0.0135011
0.0135644
0.0116397
0.0129403
0.0136077
0.0137553
0.0137439
0.0134919
0.0133303
0.0133002
0.0132323
0.0122494
0.0122839
0.0134544
0.0139241
0.0139336
0.0137854
0.0135101
0.0132751
0.0131429
0.012616
0.0119336
0.012605
0.013367
0.014187
0.0142631
0.0139396
0.0135866
0.0132092
0.0128271
0.0123329
0.0119609
0.012566
0.0131014
0.0141326
0.0145401
0.0144161
0.013857
0.0134003
0.0129619
0.0122023
0.0118418
0.0122608
0.0127544
0.0134861
0.0144373
0.0147398
0.014545
0.0141275
0.0136068
0.0123418
0.0124533
0.0118968
0.0124354
0.0130342
0.0138474
0.0145297
0.0147866
0.01494
0.0146904
0.0130206
0.012344
0.00882525
0.00861821
0.00838592
0.0081125
0.00822967
0.00888244
0.00962651
0.0102399
0.0107659
0.0107947
0.00898728
0.0086801
0.00850825
0.00837218
0.00849228
0.00914871
0.00994326
0.0103982
0.0105924
0.0107674
0.0090657
0.00881949
0.00861249
0.0085525
0.0087068
0.00927101
0.010129
0.0106037
0.0108849
0.0113823
0.00908041
0.00899427
0.00884021
0.00877705
0.00894011
0.00943703
0.0102995
0.0108835
0.0112032
0.0116554
0.00901431
0.00900629
0.00901382
0.00901801
0.0091268
0.00948322
0.0103375
0.0109692
0.0112087
0.0115318
0.00886917
0.00895847
0.00904412
0.00916682
0.00933357
0.00951883
0.0102865
0.0109629
0.0111592
0.0113745
0.00886273
0.00889064
0.00907712
0.00931536
0.00950129
0.00959312
0.0100986
0.0109141
0.0110851
0.0115233
0.00900539
0.00901838
0.00912346
0.00933113
0.00962331
0.00972283
0.0098969
0.0106062
0.0109229
0.0114701
0.00885818
0.00890615
0.0090679
0.00941897
0.00976836
0.00993437
0.00996874
0.0101502
0.0103681
0.0108783
0.00905265
0.00920988
0.00957348
0.0102574
0.0108007
0.011104
0.0110316
0.0107135
0.0107094
0.0107598
0.00876844
0.00875383
0.00849687
0.00818858
0.00802611
0.00795408
0.00798984
0.00815267
0.00812359
0.00786835
0.00858812
0.00878713
0.00849159
0.00830279
0.00822397
0.00802127
0.00769402
0.00760381
0.00717213
0.00697219
0.00836854
0.00866597
0.00835478
0.00807715
0.0080106
0.00796674
0.00741667
0.00728695
0.00701311
0.00693411
0.00758871
0.00813351
0.00819494
0.00781098
0.00762566
0.00771789
0.00744465
0.00729881
0.00701432
0.007016
0.00753222
0.00733888
0.00758851
0.00770124
0.00756538
0.0075548
0.00760974
0.00741929
0.00710095
0.00714531
0.00754827
0.00718598
0.00716189
0.00719686
0.00750241
0.00757138
0.0076247
0.00755587
0.00733427
0.00721313
0.00751195
0.0071232
0.00716665
0.00718186
0.00703525
0.00703186
0.0070454
0.00744991
0.00735206
0.00722143
0.00741351
0.00706662
0.00695322
0.00678039
0.00672881
0.00662056
0.00681277
0.0072794
0.00719955
0.00711348
0.00711134
0.00688907
0.00679446
0.00677032
0.00685125
0.00681355
0.00690401
0.00731112
0.00783821
0.00765242
0.00667053
0.00662386
0.00656451
0.00658917
0.00683375
0.00714439
0.00694456
0.00790976
0.00840783
0.00724443
0.004448
0.00445405
0.00447292
0.00446459
0.00446146
0.00448357
0.00450377
0.00450534
0.00449037
0.0044463
0.00442893
0.00445624
0.00446858
0.00445738
0.00444491
0.00448417
0.00451668
0.00452636
0.00456708
0.00455822
0.00436483
0.00438543
0.00440353
0.00438682
0.00439893
0.00438441
0.00444103
0.0044924
0.00451163
0.00451913
0.00434909
0.00434742
0.00434913
0.00434791
0.00434809
0.0043674
0.0044017
0.00440151
0.00443009
0.00442504
0.00440847
0.00437202
0.00435472
0.00434567
0.00434323
0.00434915
0.00439832
0.00439471
0.00437888
0.00439397
0.00448365
0.00446381
0.00443282
0.00440801
0.00437161
0.00435461
0.0043633
0.0043801
0.00438618
0.00439964
0.00450561
0.00447576
0.00445451
0.00443897
0.00442524
0.00439195
0.00437152
0.00437573
0.00438254
0.0044154
0.00437255
0.00442514
0.00444298
0.00443855
0.00443193
0.00441177
0.00439181
0.00439281
0.004402
0.00440456
0.00431494
0.00442826
0.00443645
0.00443534
0.00443083
0.00441515
0.0044043
0.00439326
0.00436462
0.00442494
0.0042837
0.00440238
0.00441257
0.00441497
0.00441845
0.00441582
0.00439759
0.00437852
0.00439063
0.00443439
0.0039773
0.00395743
0.00401532
0.00405757
0.00412028
0.00410637
0.00410862
0.00415701
0.00415635
0.00419459
0.00403698
0.00397976
0.00399501
0.00401201
0.00406215
0.00407123
0.00417383
0.00416971
0.00417431
0.00431056
0.00433229
0.00415759
0.00409347
0.00407115
0.00413037
0.00422631
0.00420706
0.00418482
0.00420748
0.00435397
0.00445036
0.0044789
0.00445755
0.00439801
0.00434915
0.00429882
0.00424819
0.00422327
0.00421955
0.00430177
0.00415557
0.00426616
0.00441883
0.0045049
0.00452806
0.00450254
0.00430935
0.00423686
0.00422119
0.00422614
0.00440498
0.0044141
0.00443313
0.00449076
0.00454923
0.00457725
0.00456091
0.00436739
0.00423526
0.00421357
0.00448212
0.00451628
0.00453417
0.00453662
0.00455353
0.0045904
0.00462321
0.00459216
0.00436271
0.0043194
0.00442392
0.00444391
0.00447633
0.00451196
0.00454997
0.00458857
0.00465367
0.0046209
0.00437552
0.00434036
0.00450101
0.0045057
0.00448598
0.00451556
0.00455424
0.00461267
0.00470122
0.00442241
0.00434282
0.00430708
0.00439706
0.00458259
0.00453593
0.00456303
0.00461642
0.00470463
0.00440141
0.0043153
0.00428395
0.00425451
0.00400399
0.00404278
0.0042758
0.00418689
0.0041875
0.00431998
0.00442408
0.00443484
0.00441814
0.00431058
0.00425444
0.00426666
0.00425626
0.00415932
0.00419489
0.00430522
0.00435626
0.00434869
0.00430492
0.00417301
0.00425823
0.0042402
0.00419818
0.00420557
0.00427968
0.00431782
0.0043305
0.00429893
0.00424195
0.00414109
0.00430033
0.00424696
0.00423091
0.00425323
0.0043176
0.00433546
0.00433261
0.00429602
0.00422739
0.0041379
0.00438388
0.00430543
0.00428652
0.00428533
0.00432465
0.00434307
0.00434523
0.00432914
0.00425471
0.00414509
0.00453164
0.00436133
0.00433024
0.00431928
0.00432591
0.00434286
0.00433819
0.00432567
0.00428268
0.00421158
0.00456327
0.00446977
0.00436199
0.00434373
0.00434728
0.00435976
0.00435559
0.00436316
0.00437066
0.00432901
0.00462425
0.0044711
0.00437726
0.00435581
0.00435784
0.00439804
0.00444877
0.00447801
0.00446365
0.00436831
0.00459687
0.00443585
0.00434847
0.00433162
0.00435387
0.00443679
0.00448239
0.00449468
0.00444123
0.00434607
0.004488
0.00433983
0.00428933
0.00428856
0.00433124
0.00440273
0.00442879
0.00439597
0.00428284
0.00422667
0.00839344
0.00846322
0.00857407
0.00863675
0.00866516
0.00865872
0.00864252
0.00863074
0.00864536
0.00872151
0.00839059
0.0084507
0.00850511
0.00856882
0.00859961
0.00860418
0.00859309
0.00859268
0.00859366
0.00861178
0.00829593
0.00842924
0.00852
0.00856478
0.00859694
0.00859905
0.00858726
0.00856806
0.0085714
0.00858573
0.0081846
0.00834871
0.0084929
0.00859424
0.00862212
0.00862586
0.00861431
0.00858112
0.00857409
0.00858509
0.00809786
0.00826179
0.00843622
0.00858379
0.00866689
0.00867907
0.00867374
0.00864307
0.00860886
0.00860199
0.00811628
0.00822596
0.00842326
0.00857211
0.00868632
0.00873195
0.00873425
0.00872099
0.00868199
0.00863707
0.00821351
0.00828309
0.00844788
0.00860607
0.00874533
0.00881992
0.00882197
0.00880633
0.00875796
0.00870973
0.00839268
0.0084215
0.00852726
0.00869086
0.00883282
0.00891193
0.00891555
0.00889613
0.00884112
0.00876955
0.00857843
0.00860516
0.00870709
0.00882752
0.0089215
0.00897072
0.00896871
0.00894337
0.00888624
0.00881571
0.00877965
0.00878847
0.00886787
0.00896426
0.00901542
0.00901564
0.00900118
0.00896334
0.00887735
0.00883225
0.00808416
0.00819722
0.00831641
0.008392
0.0084511
0.008487
0.00851205
0.00854333
0.00856058
0.0086342
0.00808879
0.00818814
0.00825061
0.00833739
0.00840435
0.0084321
0.008449
0.00846196
0.00848975
0.00852086
0.00799515
0.00817694
0.00828357
0.00833893
0.00839122
0.00842752
0.00843971
0.00844366
0.00845214
0.00848284
0.00789717
0.00808439
0.00826281
0.0083833
0.00843824
0.00845816
0.0084678
0.00846556
0.00846738
0.00849083
0.00782106
0.00800069
0.00820115
0.00837101
0.00849922
0.0085493
0.00854685
0.00853592
0.00851777
0.00852638
0.00786166
0.00797098
0.00819327
0.00838311
0.00853012
0.00863069
0.00865687
0.00865218
0.00863036
0.00861352
0.00797706
0.008051
0.00823412
0.00844497
0.00861447
0.00872092
0.00876326
0.00876298
0.0087507
0.00871146
0.0081592
0.00819983
0.00830866
0.0084992
0.00868321
0.00881512
0.00886874
0.00886867
0.00884727
0.00878162
0.00835716
0.00838014
0.0084414
0.00858216
0.00874133
0.00885787
0.00891011
0.00890838
0.00888775
0.00882691
0.00855369
0.00854658
0.00857269
0.0086607
0.00878477
0.00887288
0.00890449
0.00890194
0.00886885
0.00882404
0.0077669
0.00789794
0.00803075
0.00810628
0.0081879
0.00826101
0.00832504
0.00840063
0.00845033
0.0085123
0.00777412
0.00789065
0.00797779
0.00809589
0.00818304
0.00823178
0.00827586
0.00831187
0.0083517
0.0084081
0.00773262
0.00789229
0.00799735
0.00808092
0.00817266
0.00824363
0.00828382
0.00831154
0.00833284
0.0083877
0.00763713
0.00786553
0.0080219
0.00813797
0.00823285
0.00828983
0.0083222
0.00834867
0.00836628
0.00840348
0.0075878
0.00777669
0.00803066
0.00820998
0.00832903
0.008415
0.00845409
0.00845489
0.00845821
0.00847582
0.00764774
0.00777112
0.00802282
0.00826213
0.00843873
0.00854989
0.00861051
0.00863109
0.00862815
0.00861873
0.00776659
0.00786496
0.00808923
0.00833958
0.00854558
0.00868028
0.00876031
0.00877707
0.00877189
0.00874539
0.00794496
0.00802368
0.00818601
0.0083879
0.00859309
0.00876254
0.0088616
0.00888616
0.0088808
0.00884687
0.00815879
0.008205
0.00828887
0.00841211
0.00858568
0.00876785
0.00887716
0.00890342
0.00889669
0.00886991
0.00841532
0.00840021
0.00839157
0.00841287
0.0085085
0.00867313
0.00879383
0.00884049
0.00883757
0.00881152
0.00742991
0.00760327
0.00772361
0.00781749
0.00791086
0.00799767
0.00810261
0.00819405
0.00833777
0.00840064
0.00745814
0.00759291
0.00771064
0.0078277
0.00792859
0.00800745
0.00809254
0.00815201
0.00822577
0.00828769
0.00744373
0.00761043
0.00774111
0.00785239
0.00795944
0.0080418
0.00811927
0.00817263
0.00822335
0.00828736
0.0074245
0.00761747
0.00777597
0.00791832
0.00805214
0.00813877
0.00819794
0.00824359
0.00827793
0.00832962
0.00739491
0.00762789
0.00785495
0.00803625
0.00818613
0.00831583
0.00839168
0.0084241
0.00843847
0.0084695
0.00747509
0.00764346
0.00793641
0.00819461
0.00838434
0.00850375
0.00859297
0.00863494
0.00864353
0.00864435
0.00760363
0.0077519
0.00802882
0.00829879
0.00853016
0.00868665
0.00877389
0.00881595
0.00882775
0.00881929
0.00776372
0.00790046
0.00811055
0.00832781
0.00854966
0.00874576
0.00886156
0.00891019
0.00892272
0.00891505
0.00796698
0.00806509
0.008151
0.00828141
0.00844795
0.0086443
0.00880639
0.00887384
0.00888002
0.00886961
0.00829526
0.00828778
0.00824693
0.00823303
0.00827
0.00840146
0.00856166
0.00868119
0.00873657
0.00874077
0.00712235
0.00729037
0.00741424
0.00751873
0.00763376
0.00774977
0.00788391
0.00800004
0.00817822
0.00826536