/*--------------------------------*- C++ -*----------------------------------*\
  =========                 |
  \\      /  F ield         | OpenFOAM: The Open Source CFD Toolbox
   \\    /   O peration     | Website:  https://openfoam.org
    \\  /    A nd           | Version:  9
     \\/     M anipulation  |
\*---------------------------------------------------------------------------*/
FoamFile
{
    format      ascii;
    class       volScalarField;
    location    "79";
    object      H2.gas;
}
// * * * * * * * * * * * * * * * * * * * * * * * * * * * * * * * * * * * * * //

dimensions      [0 0 0 0 0 0 0];

internalField   nonuniform List<scalar> 
137980
(
0.0893975
0.08909
0.0889913
0.0898187
0.0907839
0.0912003
0.0913796
0.0914823
0.0915203
0.0913947
0.0890871
0.0888639
0.0887023
0.0891724
0.0903454
0.0908971
0.0910541
0.0910906
0.0910259
0.0909448
0.0888761
0.0886321
0.0885599
0.0887598
0.0894611
0.0905411
0.0909239
0.0909704
0.0908241
0.0906398
0.0885624
0.0884128
0.0883679
0.0884418
0.0887423
0.0894024
0.0903151
0.0906867
0.0907156
0.0904196
0.0883693
0.0883196
0.0882927
0.0882936
0.0883942
0.0886604
0.089108
0.0896645
0.090058
0.0900991
0.0883212
0.0882972
0.0882815
0.0882461
0.0882579
0.0883646
0.0886015
0.08888
0.0891205
0.0893044
0.0883213
0.0883422
0.0883525
0.0882968
0.0882332
0.0882648
0.0884072
0.08862
0.0888171
0.0889935
0.0884127
0.0884898
0.0885399
0.0884722
0.0883019
0.0882852
0.0883588
0.0885544
0.0887332
0.0889175
0.0885854
0.0886643
0.0886641
0.0885961
0.088426
0.088395
0.0884381
0.0886072
0.0887358
0.0889928
0.0887907
0.0887853
0.0887502
0.0886403
0.0885283
0.088514
0.0885544
0.0886741
0.088783
0.0890657
0.0893265
0.0890945
0.0892224
0.0900995
0.0908874
0.0912427
0.091521
0.0919226
0.0922098
0.0921052
0.0889886
0.0888533
0.088867
0.089533
0.090557
0.0909942
0.0911898
0.0913601
0.0914256
0.091364
0.0888346
0.0887004
0.088746
0.0891424
0.0899801
0.0907869
0.0910313
0.0910789
0.0910126
0.0909928
0.0885764
0.088521
0.0885508
0.0887153
0.0891899
0.0900207
0.0907008
0.0908622
0.0908585
0.0905769
0.0884382
0.0884084
0.0884157
0.0885027
0.0887097
0.0891195
0.0897496
0.0903443
0.0905286
0.0904124
0.0883687
0.0883503
0.0883454
0.0883706
0.0884666
0.0886672
0.0889835
0.0893644
0.0897035
0.0898941
0.0883479
0.0883458
0.0883542
0.0883266
0.0883479
0.08845
0.0886359
0.0888636
0.0890613
0.0892803
0.0883844
0.0884002
0.0884263
0.0883938
0.0883297
0.0883704
0.0884999
0.0886683
0.0888252
0.0890008
0.0884761
0.088493
0.0884902
0.0884553
0.0883886
0.0884019
0.088488
0.0886435
0.0887574
0.0889327
0.0885997
0.08857
0.0885304
0.0884763
0.0884434
0.0884648
0.08855
0.0886721
0.0887734
0.0889812
0.0892192
0.0891599
0.0893731
0.0901949
0.0909296
0.0913442
0.0918741
0.0921431
0.0926548
0.0934588
0.0889291
0.0888984
0.089165
0.0898317
0.0907141
0.09121
0.0916604
0.0921994
0.0926382
0.093068
0.0888037
0.0887682
0.0889424
0.0895266
0.0903399
0.0910514
0.0913719
0.0918572
0.0921138
0.0921749
0.0885967
0.0886077
0.0886994
0.0890191
0.0897056
0.0905876
0.0910552
0.0912505
0.0913174
0.0912104
0.0884745
0.0884715
0.0885267
0.0887013
0.0890554
0.089659
0.0904448
0.0908527
0.0909717
0.0908475
0.0883961
0.0883899
0.0884147
0.0884995
0.0886948
0.0890375
0.0895037
0.0900059
0.0903311
0.0904435
0.0883658
0.0883595
0.0883719
0.0883912
0.0884858
0.0886832
0.0889763
0.0892762
0.0895502
0.0897894
0.0883799
0.0883787
0.0883947
0.0883926
0.0883908
0.0884973
0.0886819
0.0888769
0.0890456
0.089237
0.0884077
0.0884025
0.0884045
0.0884015
0.0883946
0.0884393
0.0885703
0.0887213
0.0888235
0.0889665
0.088468
0.088431
0.0884137
0.0884045
0.088412
0.0884607
0.0885665
0.0886879
0.0887836
0.0889418
0.0891948
0.0892423
0.0895501
0.090227
0.0908951
0.0914141
0.0918496
0.0917571
0.0922044
0.0934201
0.0889442
0.0891562
0.0895818
0.090173
0.0909483
0.0915456
0.0920019
0.0921999
0.092458
0.0933888
0.0888178
0.0889336
0.0893212
0.0899353
0.0907009
0.0914387
0.091905
0.0922927
0.0926927
0.0932842
0.0886684
0.0887855
0.089013
0.0894795
0.0902244
0.0911254
0.0917475
0.0921229
0.0925418
0.0929818
0.0885508
0.0886072
0.0887697
0.0890801
0.0896171
0.0904705
0.0913901
0.0918268
0.0921744
0.0925406
0.0884552
0.0884806
0.0885814
0.088783
0.0891176
0.089642
0.090459
0.0912779
0.0916783
0.0918543
0.0884163
0.0884098
0.0884518
0.0885725
0.0888047
0.0891182
0.0895809
0.0901686
0.0906803
0.0910363
0.0883929
0.0883909
0.0884159
0.0884535
0.0885829
0.0888012
0.0890747
0.0893909
0.0896674
0.0899634
0.0884052
0.0883958
0.0884025
0.088418
0.0884629
0.0885958
0.088796
0.0889758
0.0890849
0.0892242
0.0884441
0.0884058
0.088397
0.0884019
0.088429
0.0885129
0.0886727
0.0887987
0.0888654
0.088915
0.0892729
0.0893577
0.0897435
0.0902614
0.0908041
0.0913436
0.0917676
0.0917537
0.0921596
0.0930963
0.0891258
0.089579
0.0899277
0.0903773
0.0909743
0.0915929
0.0920223
0.0921541
0.0923178
0.0931491
0.08892
0.0892666
0.0897349
0.0903113
0.0910451
0.0917871
0.092198
0.0924068
0.0926119
0.0932366
0.0888382
0.0890924
0.089443
0.0900449
0.0908962
0.0918336
0.0923442
0.0926147
0.0929247
0.0932903
0.0886894
0.0888895
0.0891876
0.089671
0.09049
0.091582
0.0923404
0.0926963
0.0930434
0.0932846
0.0885924
0.0887088
0.0889462
0.0893055
0.0899312
0.0909548
0.0921271
0.092648
0.0930256
0.0932208
0.0884876
0.0885627
0.0887212
0.0889912
0.0893921
0.0901181
0.0914981
0.0923786
0.0928291
0.0929911
0.0884402
0.0884416
0.088543
0.0887184
0.0889977
0.0894525
0.0903217
0.0916014
0.0921616
0.0923986
0.0884377
0.0884177
0.0884402
0.088545
0.0887331
0.0890309
0.0894835
0.0900481
0.0903791
0.0906341
0.0884681
0.088423
0.0884148
0.0884447
0.0885539
0.0887746
0.0891116
0.0892957
0.0892018
0.088991
0.0895553
0.0896005
0.089798
0.0902283
0.0906683
0.0911968
0.0917486
0.0918367
0.0917101
0.0919729
0.0894213
0.0897977
0.0900574
0.0903916
0.0909251
0.0915323
0.0920044
0.0920925
0.0919046
0.0920793
0.0890816
0.0894137
0.0898656
0.090358
0.0910367
0.0918088
0.0922098
0.0923263
0.0922024
0.0923057
0.0889544
0.0891992
0.0895613
0.0901573
0.0910081
0.0919755
0.0923984
0.0925381
0.0925395
0.0925022
0.088794
0.0889909
0.0893142
0.089843
0.0907651
0.0919862
0.0925061
0.092697
0.0927791
0.0927233
0.0886946
0.0888079
0.0890806
0.089542
0.0904157
0.0919171
0.0926226
0.0928625
0.0929537
0.0929331
0.0886307
0.0886485
0.0888626
0.089275
0.0900859
0.0917669
0.0926355
0.0929406
0.093031
0.0930095
0.0886227
0.0885664
0.0886668
0.0890071
0.0897093
0.0913542
0.0925238
0.092904
0.0930073
0.0929908
0.0886688
0.0885589
0.0885596
0.0887784
0.0892872
0.0904649
0.0920976
0.0926315
0.0927963
0.0930007
0.0886422
0.088545
0.0885177
0.0886214
0.088964
0.0897829
0.0912371
0.0917579
0.0914712
0.0906307
0.0900218
0.0898559
0.0898973
0.0901676
0.0904269
0.0909671
0.0916524
0.0914852
0.0912868
0.0918466
0.0895047
0.089861
0.0900897
0.0903761
0.0907947
0.091532
0.091854
0.0915401
0.091356
0.0918437
0.0892161
0.0895069
0.0899396
0.0904275
0.0911307
0.0918161
0.0919935
0.091659
0.0914631
0.0918335
0.0891008
0.0893176
0.089706
0.0903648
0.0913427
0.0919919
0.0921271
0.091774
0.0915378
0.0918314
0.0890024
0.0891547
0.089557
0.090277
0.0915218
0.0921172
0.0922424
0.0919447
0.0916659
0.0918397
0.0889648
0.0890196
0.0894156
0.090292
0.091688
0.092225
0.0923474
0.0920539
0.0917527
0.0918677
0.0890093
0.0889438
0.0892917
0.0904107
0.0918345
0.0923332
0.0924464
0.0922212
0.091934
0.0919554
0.0891146
0.0889655
0.0891448
0.0903679
0.0918609
0.0923833
0.0924866
0.0922885
0.0920546
0.0920381
0.0891685
0.0890155
0.0890577
0.0902282
0.0917903
0.0923589
0.0924853
0.0924147
0.0922563
0.0922322
0.0890836
0.0889335
0.0890307
0.0900124
0.0916221
0.0922475
0.0924256
0.0924184
0.0923093
0.0919962
0.0906343
0.0900776
0.0900657
0.0902335
0.0904139
0.0908177
0.0909674
0.0911113
0.0918869
0.0927477
0.0896585
0.0899619
0.0902335
0.0905111
0.0909227
0.0911679
0.0912079
0.0913118
0.0921509
0.0931738
0.0895378
0.0898192
0.0903858
0.0909131
0.0912691
0.0913798
0.091376
0.0914862
0.0924592
0.0934569
0.0895061
0.0897637
0.0904664
0.0911913
0.0914842
0.0915458
0.0914814
0.0916592
0.0927589
0.0936212
0.0895465
0.0897376
0.0905542
0.0913512
0.0916311
0.0916723
0.091573
0.0917964
0.09285
0.0935993
0.0896671
0.0897426
0.0906544
0.091503
0.0917666
0.0917929
0.0916656
0.0918565
0.0928143
0.0935118
0.089932
0.0897798
0.0906988
0.0915918
0.091839
0.0918503
0.0917214
0.0918682
0.0927074
0.0933511
0.0902995
0.0898596
0.0907206
0.0916869
0.0919321
0.0919445
0.0918404
0.0918864
0.0924968
0.0930614
0.0903948
0.0900066
0.090723
0.0917203
0.0919746
0.0920046
0.0919101
0.091916
0.0923266
0.0928265
0.090228
0.0901119
0.0908478
0.0918118
0.0920653
0.0921113
0.0920529
0.0920134
0.0922017
0.0925401
0.0908029
0.0903868
0.0904031
0.0905444
0.0907476
0.0909138
0.0911707
0.0919946
0.0926105
0.0929884
0.0901561
0.0902661
0.0905089
0.0906958
0.0909287
0.0912196
0.0914234
0.0923265
0.0931605
0.0935046
0.0902898
0.0904083
0.0906942
0.0910245
0.0912581
0.0913914
0.0917686
0.0929308
0.0934544
0.0936657
0.0903924
0.090603
0.0910311
0.0913308
0.0914444
0.0915881
0.0922802
0.0933264
0.0937064
0.0939182
0.0905386
0.0907988
0.091312
0.0915103
0.091579
0.0918502
0.0927294
0.0935641
0.0938672
0.094061
0.0906461
0.0910074
0.0914887
0.0916387
0.0917022
0.092076
0.0930112
0.0936977
0.0939577
0.0941284
0.0907616
0.0911637
0.0915655
0.0916879
0.0918081
0.0922352
0.0931688
0.0937379
0.0940134
0.0941647
0.09093
0.0912445
0.0916314
0.0917609
0.0918977
0.0923261
0.0931617
0.0937158
0.0940045
0.0941652
0.0911452
0.0912678
0.0916464
0.0917939
0.0919546
0.0923309
0.0931118
0.0936504
0.0939559
0.0941536
0.091177
0.0912908
0.0916789
0.0918615
0.0920048
0.0923053
0.0929514
0.0934558
0.0937995
0.0940888
0.0915939
0.0910138
0.0912927
0.091382
0.0914106
0.0915291
0.0920732
0.0923491
0.0926694
0.092746
0.0910367
0.0909106
0.0912489
0.0913747
0.0914259
0.0916836
0.0922865
0.0927921
0.0932594
0.0934561
0.0909176
0.090998
0.0913043
0.0914007
0.0915175
0.0919916
0.092801
0.0933415
0.0935546
0.0936453
0.0909652
0.091185
0.0914227
0.0914849
0.0917338
0.0924912
0.0932479
0.0935559
0.093695
0.0937758
0.0910832
0.0913548
0.0914921
0.0916207
0.0920324
0.0929456
0.0934987
0.0937107
0.0938309
0.093893
0.0912233
0.0915022
0.0916126
0.0917925
0.0923562
0.0932538
0.0936438
0.0938137
0.0939147
0.0939418
0.0913989
0.0915879
0.0916668
0.0919367
0.0925837
0.0934119
0.0937423
0.0939038
0.0939836
0.0939921
0.0915227
0.0916223
0.091774
0.0920785
0.0927521
0.0935161
0.093806
0.0939518
0.0940191
0.0940122
0.0915952
0.0916509
0.0918082
0.0921363
0.0927789
0.0935135
0.093826
0.0940156
0.0940608
0.0940526
0.0916622
0.0916918
0.091879
0.0921995
0.0927647
0.093456
0.093785
0.0940124
0.0940829
0.0940507
0.0936154
0.0929114
0.0925758
0.0923795
0.0920357
0.0920074
0.0921082
0.091653
0.0915438
0.0915036
0.0932614
0.0925019
0.0924014
0.0922521
0.0919768
0.0919828
0.0919154
0.091688
0.0917935
0.0923151
0.0925074
0.0923089
0.0923332
0.0920129
0.0919268
0.0919656
0.091925
0.0919213
0.0927484
0.093394
0.0923456
0.0922974
0.0921703
0.0919257
0.0919338
0.0919946
0.0920488
0.0926104
0.0934166
0.0936577
0.0923378
0.0922583
0.0919849
0.0919085
0.091964
0.0920741
0.0923544
0.0932323
0.0935985
0.093709
0.092335
0.0921317
0.0919416
0.0919221
0.0920261
0.0922452
0.0928243
0.0934721
0.0936812
0.0937617
0.092306
0.0920432
0.0919476
0.0919513
0.0921221
0.0924551
0.0930954
0.0935733
0.0937324
0.0937994
0.092217
0.0920182
0.0919639
0.0920132
0.0922199
0.0926072
0.0932808
0.0936429
0.0937726
0.0938203
0.0921896
0.0920241
0.0919907
0.0920421
0.0922878
0.0927247
0.0933371
0.0936612
0.0937891
0.093864
0.0922491
0.0920136
0.0920111
0.0921007
0.0923513
0.0927015
0.0932766
0.0936147
0.0938269
0.0938608
0.093494
0.0931414
0.0930091
0.0928033
0.0927319
0.0928929
0.0931832
0.0933256
0.0932363
0.0920302
0.0933459
0.0930647
0.0929525
0.0927905
0.0927761
0.0929372
0.0931227
0.0932551
0.093223
0.092264
0.0929073
0.092936
0.0928067
0.0927704
0.0928164
0.0929331
0.0930932
0.093237
0.0931777
0.0921934
0.0925618
0.0927037
0.0927368
0.0927491
0.0928159
0.0929357
0.0930722
0.0931823
0.0929532
0.0920085
0.09244
0.0924517
0.0925708
0.0926868
0.092783
0.0929069
0.0929873
0.0929337
0.0923933
0.0919663
0.0924892
0.0922041
0.0922816
0.0924779
0.0926278
0.0927233
0.0926467
0.092417
0.0921202
0.0919851
0.0928699
0.0922863
0.0920751
0.0921698
0.0923244
0.0923588
0.0922339
0.0921266
0.0920281
0.0920323
0.0933491
0.0924841
0.0920929
0.0919785
0.0919974
0.0920378
0.0920078
0.092
0.0919983
0.0921457
0.0934308
0.0925853
0.0921463
0.0919431
0.0918124
0.0917654
0.091777
0.091898
0.0919817
0.0922588
0.0938853
0.0927995
0.0922209
0.0919442
0.0917769
0.0916824
0.0916245
0.0916746
0.0919
0.0927331
0.0930189
0.092871
0.0928156
0.0927726
0.0927604
0.093094
0.0936262
0.0937211
0.0937491
0.0937538
0.0930078
0.0929742
0.0928895
0.0927937
0.0926898
0.0925439
0.0925312
0.0931459
0.0934135
0.093571
0.09309
0.0931144
0.0930352
0.0929495
0.0928721
0.0927634
0.0923453
0.092172
0.0923194
0.0928447
0.093292
0.0933473
0.0932863
0.0931014
0.0929515
0.0928696
0.0927401
0.0922807
0.0922139
0.0926817
0.0936729
0.0936368
0.0935692
0.0933727
0.093174
0.0929525
0.0928544
0.0926544
0.0924451
0.0928739
0.0939375
0.0938191
0.0936895
0.0934664
0.0933004
0.0931159
0.0929742
0.0928944
0.0926623
0.0928415
0.094024
0.0939147
0.0937438
0.0934975
0.0933351
0.0931821
0.0930753
0.0930356
0.0929057
0.0927011
0.0940118
0.0939303
0.0937591
0.093509
0.0933838
0.0932275
0.0931277
0.0931178
0.093053
0.0927059
0.0938451
0.0937951
0.093701
0.0935072
0.093388
0.0931476
0.0930826
0.0931077
0.0931207
0.0927186
0.093743
0.0937354
0.0936642
0.0935041
0.0932238
0.0928162
0.0928183
0.0929963
0.0930964
0.0927979
0.0936755
0.0937557
0.0938024
0.0938401
0.0938407
0.0938363
0.0938205
0.0938214
0.0938313
0.0938718
0.0939206
0.094017
0.0940338
0.0940214
0.0939642
0.0938853
0.0938054
0.093809
0.0938298
0.0938954
0.0941012
0.094142
0.0941396
0.0940942
0.0940006
0.0939171
0.0938439
0.0938235
0.093838
0.0938919
0.0942279
0.0942245
0.0941925
0.0941129
0.0940112
0.0939191
0.0938531
0.0938166
0.0938229
0.093862
0.0942828
0.0942455
0.0941868
0.0940658
0.0939723
0.0938674
0.0937817
0.0937493
0.093761
0.0938224
0.0943037
0.0941933
0.0940744
0.0939083
0.0938018
0.0937372
0.0936317
0.0936228
0.0936491
0.0937599
0.0942309
0.0939879
0.0938712
0.0937585
0.0936982
0.0935942
0.0935589
0.0935654
0.0936033
0.0937672
0.093889
0.0938222
0.0937729
0.0936667
0.0935665
0.093539
0.0935459
0.0935532
0.0935856
0.0937686
0.0937508
0.0937709
0.0936991
0.09352
0.0935034
0.0935243
0.0936011
0.0935927
0.0936285
0.0936578
0.0937251
0.0937591
0.0935541
0.0934458
0.0934737
0.0935555
0.0937782
0.0936759
0.0935299
0.092796
0.0940211
0.093963
0.0938657
0.0938458
0.0938497
0.0938509
0.0938411
0.0938317
0.093825
0.0946391
0.0940356
0.0939674
0.0938569
0.0938164
0.0938164
0.0938136
0.0938124
0.0938251
0.0939352
0.0945877
0.0940112
0.093907
0.0937785
0.0937371
0.0937392
0.093753
0.093786
0.0938685
0.0941588
0.0948615
0.0939601
0.0938436
0.0937138
0.093687
0.0936933
0.093735
0.0938444
0.0941557
0.0946611
0.0949499
0.093894
0.0937459
0.0936163
0.0936046
0.0936383
0.0937657
0.0941321
0.094501
0.094714
0.0946646
0.0938461
0.0936536
0.0935485
0.0935569
0.0936199
0.0939221
0.0942769
0.094331
0.0940728
0.0943297
0.0937878
0.0935588
0.0934716
0.0934983
0.0936105
0.0939467
0.0938179
0.0934707
0.0937777
0.0942217
0.0937614
0.0935066
0.0934312
0.0934675
0.0935299
0.0934056
0.0930963
0.0931078
0.0932549
0.0937715
0.0937534
0.0934813
0.0933734
0.093404
0.0932926
0.0929043
0.0926744
0.0925945
0.0925726
0.0926897
0.0937569
0.0934639
0.0933336
0.0933734
0.093229
0.0928239
0.0925734
0.0924465
0.0923643
0.0923005
0.0939985
0.0940145
0.0940145
0.0940011
0.0939871
0.0939563
0.093856
0.0941196
0.094409
0.0941559
0.0940142
0.0940185
0.0940157
0.0939653
0.0939298
0.0938453
0.0938027
0.0942587
0.0943512
0.0942842
0.0940083
0.0940194
0.0940013
0.09389
0.0938336
0.0937379
0.0937814
0.0943333
0.0944534
0.0943085
0.094006
0.094022
0.0939675
0.0937705
0.0936912
0.0936798
0.0938511
0.0945926
0.0947446
0.0944381
0.0940057
0.094022
0.0938816
0.0935779
0.0935342
0.093656
0.0943036
0.0951023
0.0951453
0.0947101
0.0940064
0.094012
0.0937191
0.0933827
0.0934721
0.0938612
0.0949466
0.0952969
0.0952182
0.0949307
0.0940062
0.0939926
0.0935056
0.0932923
0.0934714
0.0943029
0.0950744
0.0951967
0.0951324
0.0950313
0.0940058
0.0939678
0.0934107
0.0932747
0.0935666
0.094467
0.094976
0.0950953
0.0951317
0.095159
0.094006
0.093956
0.0933897
0.0932989
0.0936918
0.0946135
0.0950016
0.0951277
0.0951863
0.0952869
0.0940157
0.0939615
0.0933951
0.093394
0.0939872
0.0947091
0.094918
0.0950158
0.0950813
0.0951107
0.0946515
0.0942065
0.0938103
0.0937574
0.0937718
0.093781
0.0937879
0.0937987
0.0945568
0.0951727
0.0947058
0.094246
0.0938341
0.0937477
0.0937477
0.0937668
0.093784
0.093837
0.0940263
0.0947956
0.0946777
0.0942124
0.0937958
0.0937219
0.0937358
0.0937638
0.0937839
0.0938392
0.0939576
0.0942969
0.094636
0.0940372
0.0937328
0.0937027
0.0937319
0.093768
0.0938019
0.093894
0.0939935
0.0942107
0.094505
0.0938457
0.0936815
0.0936935
0.0937481
0.093787
0.0938407
0.0939545
0.0940809
0.0943547
0.0941192
0.0936751
0.0936502
0.0936956
0.0937951
0.0938384
0.0939151
0.0940063
0.0941513
0.0947128
0.0937049
0.0936037
0.0936399
0.0937824
0.0938628
0.0939168
0.0939742
0.0940451
0.094344
0.0953066
0.0935543
0.093581
0.0936828
0.0938961
0.0939601
0.0939973
0.0940105
0.0940508
0.0942908
0.0952243
0.093505
0.093582
0.0938239
0.0940183
0.094066
0.0940823
0.0940764
0.0940756
0.0941528
0.0947493
0.093482
0.0936618
0.0939734
0.0941234
0.0941443
0.0941429
0.0941223
0.094116
0.0941375
0.0942406
0.095576
0.0953007
0.0944896
0.0943286
0.094288
0.0943358
0.0944754
0.0944898
0.0944413
0.0944746
0.0959905
0.0955092
0.0947724
0.0943827
0.0942824
0.094276
0.0944422
0.0946114
0.0946238
0.0946266
0.096037
0.0956284
0.0949133
0.0943958
0.0942354
0.0942107
0.0942167
0.0945612
0.0946899
0.0947725
0.0960448
0.0956834
0.0949437
0.0943117
0.0940564
0.0941089
0.0941176
0.0942008
0.0946575
0.0947431
0.0960491
0.0956477
0.0946724
0.0940437
0.0938215
0.0938334
0.09398
0.0941046
0.094509
0.0946812
0.0959946
0.0951753
0.0941208
0.0937751
0.0937235
0.0937336
0.093769
0.0939119
0.0943163
0.0946857
0.0955081
0.0942394
0.0937518
0.0936528
0.0936695
0.0936937
0.0937174
0.0937846
0.0940916
0.0947393
0.094128
0.0936803
0.0935757
0.0936
0.0936551
0.0936879
0.0937005
0.0937284
0.0939095
0.094644
0.093493
0.0934698
0.0935232
0.0936003
0.0937393
0.0937436
0.0937269
0.0937288
0.0937637
0.0941317
0.0933233
0.0934174
0.093583
0.0937882
0.0939668
0.0939523
0.0938682
0.0937784
0.0937883
0.093951
0.0949097
0.0948894
0.0950124
0.0951714
0.0952964
0.0954475
0.0958693
0.0964965
0.0971323
0.0978126
0.0949034
0.094989
0.0952954
0.0956846
0.0962258
0.0969416
0.097497
0.0978717
0.0980657
0.0981834
0.0950324
0.0953717
0.0960306
0.0969114
0.0974711
0.0977263
0.0978395
0.0978674
0.0977831
0.0972366
0.0955907
0.096297
0.0970554
0.0975353
0.0977137
0.0977673
0.0977728
0.0975356
0.09668
0.0961485
0.0958971
0.0967998
0.0974103
0.0976235
0.0976933
0.0976976
0.0974467
0.0968121
0.0963428
0.0961957
0.0957733
0.0967163
0.0973901
0.097576
0.0976081
0.0975293
0.0971965
0.0965948
0.0963059
0.0962498
0.0954639
0.09626
0.0971959
0.0974776
0.0975359
0.0975053
0.0972317
0.0966516
0.0963214
0.096252
0.0952201
0.0954661
0.096241
0.0971598
0.0974067
0.0974524
0.0973416
0.0969652
0.0964002
0.0962925
0.0952109
0.0952387
0.0954058
0.0960098
0.0968762
0.0972218
0.0972881
0.0971971
0.0967218
0.0962979
0.0952264
0.0951219
0.0951404
0.0952856
0.0955969
0.0961023
0.0962757
0.0968359
0.0967777
0.0963718
0.0966017
0.0966457
0.096803
0.096599
0.09486
0.0927398
0.0916759
0.0895704
0.0884455
0.0862358
0.0968544
0.0967677
0.0968913
0.0967594
0.0952727
0.0928413
0.0911764
0.0864157
0.083491
0.0830648
0.0973701
0.0969696
0.097004
0.0969018
0.0959226
0.0930465
0.0901748
0.0862612
0.0860321
0.0895554
0.0980625
0.0974543
0.0972401
0.0972065
0.0965257
0.0932821
0.0904455
0.0866993
0.0891729
0.0921013
0.0982518
0.0979624
0.0976619
0.0975736
0.0969365
0.0935686
0.091533
0.0885171
0.0917914
0.0944871
0.0979255
0.0981403
0.0979659
0.0978438
0.0971928
0.093961
0.0923163
0.0914276
0.0930616
0.0949905
0.0979848
0.098183
0.0981074
0.0979471
0.0972432
0.09444
0.0925159
0.0932043
0.0937103
0.0948646
0.0976853
0.0981309
0.0980937
0.0978677
0.0970941
0.0946911
0.0926839
0.0932921
0.0940877
0.0944008
0.0925065
0.0936615
0.0939188
0.09565
0.0957575
0.0944404
0.0927637
0.0926388
0.093302
0.0933743
0.0859812
0.0907818
0.0928539
0.0939277
0.0925709
0.0922374
0.091899
0.091978
0.0923872
0.0930504
0.0465289
0.0453281
0.0390424
0.0337255
0.0314799
0.0303942
0.03058
0.0312808
0.0318919
0.0314966
0.0467733
0.0481129
0.046015
0.041004
0.0366775
0.0323395
0.02901
0.0291581
0.0269935
0.0258003
0.045593
0.0482277
0.0480335
0.045751
0.0411256
0.0348203
0.0280808
0.0270778
0.0257648
0.0252816
0.0380436
0.0458992
0.0470999
0.0457961
0.0413929
0.0355412
0.0286528
0.0271355
0.0257677
0.0251708
0.0318261
0.035501
0.0417206
0.0441374
0.0420708
0.0374964
0.0318854
0.0276986
0.0258628
0.0258343
0.0303161
0.0301925
0.0328888
0.0373713
0.0409029
0.0386924
0.0362062
0.030181
0.0265629
0.0261526
0.0297226
0.0291312
0.0310131
0.0341047
0.0343187
0.0341198
0.0333845
0.0312327
0.0274354
0.0267192
0.0290488
0.0282456
0.0265569
0.0254153
0.0251232
0.0253935
0.0274074
0.0298065
0.0275721
0.0268151
0.0268162
0.0255846
0.0241928
0.0237853
0.0244769
0.0247848
0.0272334
0.0297105
0.0325368
0.0304533
0.0234982
0.0227703
0.0222664
0.0224009
0.0240812
0.0256301
0.026309
0.0365931
0.046974
0.0290456
0.00926509
0.00907761
0.00834756
0.0080535
0.00802439
0.00838067
0.00939703
0.00982801
0.0101301
0.0104157
0.00932118
0.00891419
0.00842473
0.00804424
0.00788279
0.00786166
0.00866117
0.00938704
0.00990776
0.00992174
0.00916446
0.00905981
0.0088057
0.00865678
0.00808309
0.00730876
0.00716614
0.0075873
0.00813035
0.00829078
0.00910353
0.0090865
0.00900535
0.00886153
0.00873425
0.00856199
0.00685162
0.00651695
0.00674832
0.00685367
0.00937848
0.00925048
0.00916416
0.00901828
0.00886635
0.00880199
0.00833904
0.0071104
0.00655315
0.00648787
0.0102694
0.00999824
0.00968493
0.00944356
0.00917352
0.00899915
0.00885771
0.00855321
0.00781424
0.00797251
0.0116049
0.0112079
0.0107878
0.0103688
0.00991736
0.00943761
0.00914026
0.00898792
0.00898438
0.00908092
0.0106896
0.0110596
0.0109874
0.0108103
0.0105763
0.010178
0.00975475
0.00968846
0.00952419
0.00928875
0.0102104
0.0109449
0.0109796
0.0108824
0.0106975
0.0102812
0.00991185
0.00951063
0.00780465
0.00792841
0.00952607
0.0107679
0.0108779
0.0107839
0.0105743
0.0101691
0.00972713
0.00834489
0.00760879
0.0075312
0.00860221
0.00895055
0.00966426
0.00984133
0.00987786
0.00956799
0.00717102
0.00354866
0.00177144
0.0017909
0.00836658
0.00831518
0.0087971
0.00887041
0.00851875
0.00625693
0.00360007
0.00186689
0.00116175
0.00195354
0.00832762
0.00702017
0.00635633
0.00573899
0.00468323
0.00362837
0.00272073
0.00151141
0.00101407
0.00217182
0.00790784
0.00795692
0.0070476
0.00602528
0.00518707
0.00436618
0.00317864
0.00170252
0.000991756
0.00139002
0.00679787
0.00663978
0.0070115
0.00706499
0.00701021
0.00701026
0.00615033
0.00359968
0.00150309
0.00103465
0.00920905
0.00909845
0.00854276
0.00802701
0.00800035
0.00819311
0.00810802
0.00712405
0.00400987
0.00148037
0.00792598
0.00855449
0.00876997
0.00872963
0.00875506
0.00893418
0.00893589
0.00841735
0.00584299
0.00242347
0.00557234
0.00612598
0.00767284
0.00841063
0.00875958
0.00901394
0.00895674
0.00841937
0.00530236
0.00188399
0.00613997
0.00624093
0.00735548
0.00822544
0.00877298
0.00895879
0.008793
0.00721935
0.00222998
0.00110944
0.00616782
0.00754092
0.00759391
0.0083884
0.00877623
0.00875877
0.00675329
0.00189119
0.00131487
0.00146225
0.00141983
0.00179306
0.00222685
0.00108303
0.00123473
0.00170949
0.0018198
0.00157058
0.000792879
0.000471247
0.00152884
0.00132103
0.000693257
0.000455073
0.000730431
0.00141102
0.0015955
0.00128336
0.000421736
0.000161252
0.000867114
0.000412158
0.000155496
0.000114487
0.00016598
0.000406729
0.000635924
0.000659996
0.000325912
0.000109904
0.000207592
9.81226e-05
4.02611e-05
2.7077e-05
2.59714e-05
3.59249e-05
6.40829e-05
9.14321e-05
9.87685e-05
0.000100588
0.000159524
5.19154e-05
2.20216e-05
1.37786e-05
1.17626e-05
1.14061e-05
1.27385e-05
1.79494e-05
3.08024e-05
5.07378e-05
0.000434456
6.58213e-05
1.77621e-05
1.06141e-05
8.67642e-06
7.64957e-06
6.39454e-06
5.8054e-06
6.92155e-06
1.42903e-05
0.00218234
0.000155174
1.87985e-05
1.00261e-05
8.91973e-06
8.28876e-06
6.60683e-06
4.57315e-06
4.44119e-06
6.76118e-06
0.0017143
0.000136589
1.90763e-05
1.02991e-05
9.44894e-06
9.1492e-06
8.14276e-06
7.62485e-06
9.05854e-06
1.14908e-05
0.00087151
0.000108188
2.11609e-05
1.12309e-05
1.06065e-05
1.1622e-05
1.15016e-05
1.17909e-05
1.90193e-05
3.20937e-05
0.000428568
7.62365e-05
2.35889e-05
1.34448e-05
1.27455e-05
1.36227e-05
1.67682e-05
2.04138e-05
3.2235e-05
4.03121e-05
0.0838747
0.0879409
0.0894719
0.0897435
0.0895202
0.0889807
0.087905
0.0865523
0.0850355
0.084429
0.0811334
0.0851209
0.0882876
0.0895822
0.0899646
0.0898735
0.0894854
0.088338
0.0857961
0.0844615
0.0800487
0.0825552
0.0853372
0.0880295
0.0894363
0.0898584
0.089809
0.089476
0.0882334
0.0854732
0.0799039
0.0811904
0.0835768
0.0856187
0.0877704
0.0892343
0.0897038
0.0896543
0.0893042
0.0881077
0.0799061
0.0811877
0.0825823
0.0846124
0.0861766
0.087784
0.0890855
0.0895483
0.0894801
0.0890349
0.0801436
0.0817093
0.0830459
0.0846573
0.0862674
0.0873822
0.0884356
0.0892627
0.0894801
0.0893241
0.0806827
0.0826477
0.0846555
0.086187
0.0873598
0.0879545
0.0885768
0.0891805
0.0895549
0.0894843
0.0809274
0.0839471
0.0862863
0.0878944
0.0887959
0.0891793
0.0892387
0.0893444
0.0895992
0.089648
0.0810119
0.0845689
0.0865397
0.0876989
0.0885824
0.0890919
0.0892934
0.0894044
0.0895956
0.0896597
0.0805385
0.0844295
0.0862109
0.0869592
0.0874974
0.0880979
0.0886416
0.0890406
0.0892081
0.0894664
0.0809526
0.0851193
0.0875632
0.0887541
0.0890616
0.0888903
0.0884018
0.0877046
0.0864288
0.0850901
0.0790895
0.0822796
0.0861516
0.0883746
0.0893833
0.0896969
0.089608
0.0892565
0.0881496
0.0857479
0.078349
0.0800602
0.0829558
0.0860175
0.0883042
0.0893939
0.0897005
0.0896585
0.0893308
0.0883335
0.0782272
0.0790074
0.0806847
0.0832607
0.0856014
0.0878777
0.0891841
0.0895593
0.0895153
0.0892471
0.078211
0.0790358
0.0798428
0.0815019
0.0838144
0.0855405
0.0874607
0.0889261
0.0893625
0.0893073
0.0783347
0.0793476
0.0801959
0.0814298
0.0831968
0.085067
0.0863992
0.0877904
0.0889096
0.0891973
0.0787139
0.0799715
0.0814206
0.0828205
0.0841223
0.0855402
0.0866549
0.087573
0.0884767
0.0891257
0.0789944
0.0808548
0.0832132
0.0852357
0.0866597
0.0874541
0.0879421
0.0881438
0.0885364
0.0889877
0.0790491
0.0811066
0.0840228
0.0861286
0.0874438
0.0882523
0.0886245
0.0887447
0.0888474
0.0890873
0.0786108
0.0805943
0.0840452
0.0859764
0.0869366
0.0875428
0.088059
0.0885032
0.0886755
0.0890515
0.0794867
0.083036
0.0855175
0.0870209
0.0880342
0.0884967
0.0883641
0.0880714
0.087486
0.0862735
0.0782508
0.0809601
0.0845855
0.0869918
0.0885541
0.0893384
0.0895137
0.0894249
0.0890668
0.088057
0.0776172
0.0788504
0.0816747
0.0850018
0.0874802
0.0888971
0.0894859
0.0896252
0.0895652
0.089328
0.0773735
0.0779183
0.0790396
0.0816239
0.0844146
0.0865757
0.0883981
0.0892828
0.0894823
0.0894277
0.0773418
0.0778441
0.0783531
0.0793838
0.0816698
0.0840805
0.0857686
0.0876199
0.0889136
0.0892334
0.0774597
0.0781531
0.0786945
0.0794002
0.0809058
0.0831019
0.0849915
0.0862413
0.0876087
0.0887236
0.0777736
0.0787139
0.0796731
0.080688
0.0819676
0.0836913
0.0853257
0.0864681
0.0872909
0.0881301
0.0781065
0.0793221
0.0810122
0.0829669
0.0847032
0.0860877
0.0870886
0.0877195
0.0879637
0.0883318
0.0782845
0.0794534
0.0813734
0.0838065
0.0858011
0.087138
0.0879178
0.0882825
0.0883769
0.0885525
0.0778517
0.0788395
0.0808373
0.083846
0.0858964
0.0869427
0.0874409
0.0877978
0.0878884
0.0880994
0.0788526
0.0814453
0.0835463
0.0852949
0.0866385
0.087785
0.0882052
0.0881864
0.0879942
0.087125
0.077925
0.0805729
0.0832936
0.0856824
0.0875624
0.0887626
0.0893197
0.0893994
0.0893202
0.0891059
0.0773753
0.07872
0.0816931
0.0845783
0.0867949
0.0883032
0.0891756
0.0895158
0.0895563
0.0895103
0.0770536
0.0776472
0.0789542
0.0816716
0.0841611
0.0860108
0.0875881
0.0887743
0.0893008
0.0893929
0.0769355
0.0772743
0.077811
0.079001
0.0813368
0.0836475
0.0851623
0.0864652
0.087971
0.0888858
0.0769821
0.0774042
0.0777656
0.0783488
0.0796898
0.0819756
0.0841148
0.0855428
0.0865249
0.0876949
0.0772318
0.0779236
0.078587
0.0794955
0.0807331
0.0825182
0.0844157
0.0859387
0.086736
0.0874089
0.0776379
0.0786129
0.0796324
0.0812486
0.083073
0.0847458
0.0861882
0.0872202
0.0876971
0.0880064
0.0778946
0.0787265
0.0797297
0.0816256
0.0838388
0.0856956
0.0868644
0.0876426
0.0879116
0.088065
0.0777121
0.078114
0.0790178
0.0810866
0.0838133
0.0858111
0.0867425
0.0871599
0.087223
0.0873056
0.0782615
0.0803347
0.0820634
0.0833485
0.0853157
0.0871038
0.0880293
0.0883153
0.0882885
0.0879402
0.0778096
0.0800866
0.0824396
0.0844184
0.0865299
0.0881418
0.08901
0.0893368
0.0893575
0.089366
0.0774095
0.0790257
0.0817796
0.084083
0.0861235
0.0877406
0.0887337
0.0892715
0.0894835
0.0894906
0.0770681
0.0777565
0.0793651
0.082046
0.0843061
0.0857798
0.0866976
0.0877337
0.0887252
0.0891833
0.0768888
0.0772462
0.0778722
0.0792349
0.0815546
0.0837218
0.0850935
0.0859343
0.0868929
0.0879773
0.0768288
0.0771331
0.0775019
0.0781889
0.0796881
0.0819755
0.0840413
0.0854384
0.0862213
0.0869803
0.0768984
0.07737
0.0780247
0.0787365
0.079972
0.0819053
0.083962
0.0856265
0.0865621
0.0871184
0.0772485
0.0782026
0.0789455
0.0799724
0.0815802
0.0833163
0.0849494
0.0863586
0.087139
0.0874744
0.0776761
0.0783402
0.0789519
0.0800445
0.0819327
0.0840299
0.0857516
0.0868489
0.0873265
0.0875027
0.0776854
0.0778349
0.0782394
0.0792774
0.0815247
0.0839251
0.0857797
0.0866472
0.08692
0.0869781
0.0778045
0.079381
0.0807392
0.0816139
0.0835807
0.0862998
0.0877843
0.0883171
0.0885441
0.0884858
0.0777142
0.0797042
0.0818528
0.0835426
0.0853451
0.0872986
0.0885105
0.0891406
0.0893406
0.0893959
0.0775336
0.079382
0.0817027
0.0836268
0.085334
0.0870143
0.0881841
0.0889214
0.0892968
0.0894096
0.0771909