/*--------------------------------*- C++ -*----------------------------------*\
  =========                 |
  \\      /  F ield         | OpenFOAM: The Open Source CFD Toolbox
   \\    /   O peration     | Website:  https://openfoam.org
    \\  /    A nd           | Version:  9
     \\/     M anipulation  |
\*---------------------------------------------------------------------------*/
FoamFile
{
    format      ascii;
    class       volScalarField;
    location    "80";
    object      CO.gas;
}
// * * * * * * * * * * * * * * * * * * * * * * * * * * * * * * * * * * * * * //

dimensions      [0 0 0 0 0 0 0];

internalField   nonuniform List<scalar> 
137980
(
0.291566
0.291908
0.293887
0.297056
0.299407
0.301267
0.302153
0.302165
0.30157
0.302604
0.28922
0.290121
0.293502
0.296964
0.299305
0.300969
0.302435
0.302937
0.302585
0.303128
0.286972
0.288403
0.293304
0.29656
0.298527
0.299973
0.301298
0.302838
0.303284
0.303499
0.286118
0.287648
0.292506
0.295751
0.297718
0.299013
0.299685
0.301853
0.302992
0.303263
0.28622
0.287455
0.29159
0.294618
0.29638
0.298001
0.298619
0.299369
0.301404
0.302128
0.286855
0.28738
0.290206
0.293277
0.294634
0.296567
0.297546
0.297908
0.298357
0.298866
0.287614
0.287745
0.288933
0.291571
0.293165
0.294235
0.295635
0.296381
0.296797
0.296863
0.287667
0.28803
0.288631
0.290118
0.29161
0.292486
0.29312
0.293552
0.293679
0.293816
0.287729
0.287943
0.288699
0.289785
0.290946
0.291452
0.291761
0.291975
0.292
0.291861
0.287746
0.288173
0.289149
0.289892
0.290639
0.291091
0.291355
0.291523
0.291536
0.291742
0.292099
0.29273
0.294981
0.297342
0.299332
0.300935
0.301528
0.300848
0.300488
0.301262
0.290446
0.291773
0.29482
0.297322
0.299226
0.300804
0.301872
0.301517
0.300728
0.301382
0.28851
0.290806
0.294645
0.29692
0.298468
0.299876
0.301584
0.301964
0.301285
0.301484
0.287632
0.289929
0.293989
0.296165
0.297736
0.298795
0.300914
0.301861
0.301906
0.301757
0.287364
0.289134
0.292833
0.295035
0.296551
0.298014
0.299517
0.301357
0.301825
0.301796
0.287558
0.288371
0.291039
0.293736
0.295039
0.296871
0.297973
0.30007
0.301325
0.301617
0.287763
0.288048
0.289115
0.291755
0.293638
0.294978
0.29641
0.297964
0.300123
0.300905
0.287614
0.287912
0.288428
0.289691
0.291693
0.292749
0.293747
0.2947
0.296351
0.298497
0.287793
0.287735
0.288116
0.288831
0.290168
0.29129
0.29193
0.292417
0.292814
0.29361
0.287762
0.28799
0.288388
0.288859
0.289582
0.290259
0.290824
0.291257
0.291629
0.291477
0.292336
0.293533
0.295253
0.297097
0.298631
0.299781
0.300199
0.299383
0.299198
0.300326
0.291231
0.293055
0.295169
0.297021
0.298212
0.299949
0.300316
0.299472
0.299301
0.300283
0.290189
0.292544
0.294963
0.296602
0.297507
0.299517
0.300444
0.299614
0.299354
0.300211
0.289307
0.291623
0.294376
0.295924
0.297126
0.299109
0.300287
0.300076
0.299439
0.300134
0.288639
0.290469
0.293192
0.294889
0.296411
0.298431
0.300034
0.300298
0.299643
0.300126
0.288044
0.289008
0.291308
0.293877
0.295219
0.297387
0.2995
0.300193
0.300117
0.300168
0.28781
0.288146
0.289249
0.291957
0.294096
0.295808
0.298613
0.299871
0.300108
0.300212
0.287685
0.287845
0.288323
0.289719
0.292051
0.293572
0.296137
0.298935
0.2998
0.300077
0.288211
0.287767
0.287943
0.288574
0.290299
0.29171
0.293044
0.295986
0.29834
0.299195
0.28797
0.28805
0.28823
0.288345
0.289222
0.290604
0.291516
0.29248
0.293558
0.293627
0.292587
0.294
0.2951
0.295992
0.296807
0.298189
0.298238
0.29789
0.298178
0.301365
0.292001
0.293592
0.294885
0.295849
0.29736
0.298322
0.298274
0.298048
0.298393
0.301588
0.291209
0.293021
0.294711
0.295752
0.297422
0.298364
0.298348
0.298091
0.298424
0.301572
0.290346
0.292262
0.294305
0.295438
0.297292
0.298459
0.29851
0.29813
0.29838
0.301406
0.289234
0.291083
0.293403
0.294944
0.296897
0.298403
0.298687
0.298158
0.298247
0.300975
0.288279
0.289448
0.291847
0.294306
0.296096
0.298227
0.298692
0.298246
0.298168
0.300249
0.287903
0.288308
0.289704
0.292736
0.295352
0.297785
0.298545
0.298502
0.298218
0.299442
0.287852
0.28787
0.288462
0.290332
0.293541
0.296733
0.298194
0.298507
0.298395
0.299234
0.288686
0.287915
0.287972
0.288871
0.291396
0.294473
0.297293
0.298186
0.298299
0.299027
0.288608
0.288224
0.288078
0.288369
0.28987
0.292748
0.295567
0.29667
0.296933
0.296391
0.292894
0.294014
0.294635
0.295309
0.296287
0.296599
0.296364
0.296903
0.299637
0.304114
0.292556
0.29389
0.294908
0.29608
0.296771
0.296901
0.296869
0.297538
0.300958
0.304346
0.291989
0.293646
0.29506
0.29643
0.297005
0.297063
0.29706
0.298161
0.302315
0.305145
0.291379
0.293222
0.294964
0.296509
0.29719
0.297338
0.297485
0.299207
0.303516
0.305781
0.290345
0.292443
0.294498
0.296305
0.297186
0.297518
0.297706
0.299341
0.303409
0.305664
0.289049
0.290941
0.293719
0.295878
0.297069
0.297549
0.297708
0.299168
0.302842
0.305111
0.288265
0.289324
0.29187
0.295226
0.296801
0.297525
0.29776
0.298749
0.301348
0.303842
0.288048
0.288313
0.289948
0.293577
0.296223
0.297324
0.297784
0.298331
0.299514
0.301188
0.288485
0.288159
0.288664
0.291089
0.294915
0.29658
0.297651
0.298112
0.298751
0.29995
0.288624
0.288237
0.288279
0.289522
0.293128
0.295685
0.296998
0.297492
0.297633
0.298195
0.293739
0.293921
0.2941
0.294483
0.294983
0.295358
0.296121
0.298061
0.302979
0.303855
0.294156
0.294563
0.294991
0.295487
0.2958
0.295938
0.297156
0.300783
0.303705
0.304267
0.294529
0.295339
0.295869
0.296116
0.296203
0.296897
0.299415
0.303185
0.304608
0.30509
0.294611
0.295602
0.296199
0.296517
0.296954
0.298349
0.301798
0.30439
0.305274
0.305661
0.294424
0.295629
0.296421
0.296826
0.297806
0.299923
0.303421
0.305027
0.305683
0.305984
0.293858
0.295426
0.296674
0.297542
0.298813
0.30117
0.303999
0.305296
0.305925
0.306122
0.292527
0.29483
0.29651
0.297625
0.299021
0.30131
0.303928
0.305192
0.305859
0.305897
0.290661
0.293737
0.295758
0.297446
0.298868
0.301144
0.303593
0.304788
0.305452
0.304704
0.289681
0.291748
0.294529
0.296816
0.298319
0.300736
0.302752
0.303797
0.304543
0.3038
0.289088
0.290102
0.292409
0.29542
0.297563
0.29987
0.301681
0.302337
0.302485
0.302846
0.293404
0.293839
0.294369
0.295113
0.295753
0.297177
0.300932
0.302226
0.302174
0.302099
0.294133
0.294551
0.295103
0.295661
0.296688
0.299686
0.301923
0.302444
0.302586
0.302679
0.295053
0.295298
0.295682
0.296505
0.298655
0.301471
0.302526
0.302871
0.303051
0.303235
0.295403
0.295664
0.296253
0.297705
0.300383
0.302301
0.303048
0.303472
0.304144
0.304467
0.295575
0.29617
0.297121
0.298943
0.301547
0.30305
0.303811
0.304658
0.305052
0.305202
0.295637
0.296675
0.297913
0.299932
0.302324
0.303885
0.304737
0.305177
0.30529
0.305106
0.295559
0.296888
0.298413
0.300663
0.303295
0.304539
0.305055
0.30517
0.305073
0.303516
0.295318
0.296837
0.298735
0.301352
0.303701
0.304697
0.305053
0.305099
0.304551
0.301675
0.294591
0.296443
0.298579
0.30131
0.303637
0.304635
0.30498
0.30491
0.304121
0.301803
0.29346
0.296415
0.2985
0.301126
0.303364
0.30436
0.304773
0.304705
0.304076
0.30279
0.298934
0.299622
0.299866
0.299964
0.299981
0.299861
0.299703
0.299586
0.299456
0.299372
0.298653
0.299469
0.299817
0.300138
0.300355
0.300639
0.300816
0.300876
0.300729
0.300478
0.298667
0.299551
0.300206
0.301099
0.301919
0.302287
0.302434
0.302479
0.302425
0.302187
0.298751
0.299852
0.30129
0.302481
0.302918
0.303062
0.303098
0.303079
0.302921
0.302622
0.298956
0.300417
0.302284
0.303054
0.303254
0.303269
0.303102
0.302574
0.301818
0.301578
0.298953
0.300629
0.302586
0.303244
0.303386
0.303381
0.302738
0.300948
0.299248
0.298181
0.298837
0.300882
0.30277
0.303419
0.303631
0.303667
0.302999
0.301424
0.299491
0.296355
0.298571
0.300787
0.302758
0.303549
0.303941
0.304118
0.303752
0.302943
0.301708
0.297724
0.297857
0.300471
0.302614
0.303504
0.303958
0.304286
0.304321
0.304133
0.303435
0.301371
0.298136
0.300692
0.302579
0.303339
0.303835
0.304152
0.304287
0.304108
0.303496
0.3029
0.299391
0.299107
0.299069
0.299128
0.299197
0.299204
0.299009
0.298712
0.298361
0.29791
0.301028
0.300726
0.300699
0.300659
0.300387
0.300031
0.299791
0.299502
0.299209
0.299003
0.301785
0.30161
0.301469
0.301117
0.300722
0.300028
0.299327
0.298993
0.298875
0.2989
0.302017
0.301955
0.301719
0.301354
0.300525
0.299508
0.298767
0.29765
0.296592
0.296111
0.302103
0.302176
0.30217
0.301896
0.301252
0.300433
0.299351
0.297789
0.296247
0.294721
0.302024
0.302288
0.302565
0.302618
0.302392
0.301863
0.300963
0.299726
0.297553
0.294655
0.301716
0.302234
0.30284
0.303176
0.303252
0.303021
0.302603
0.301648
0.300254
0.297104
0.300952
0.302036
0.302796
0.30339
0.30364
0.303513
0.303187
0.302393
0.301495
0.299421
0.299389
0.301431
0.302556
0.303308
0.303648
0.303551
0.303221
0.302475
0.301808
0.300311
0.299911
0.301353
0.302451
0.303086
0.303086
0.30296
0.301764
0.300464
0.299761
0.299469
0.298866
0.297999
0.297753
0.29748
0.297339
0.297119
0.296973
0.296752
0.29664
0.296496
0.301072
0.299803
0.299252
0.298529
0.298103
0.297538
0.297221
0.296774
0.29656
0.296303
0.302025
0.301177
0.300598
0.299721
0.299027
0.298284
0.297628
0.29688
0.296348
0.295857
0.302514
0.301949
0.301528
0.300745
0.29995
0.299126
0.298089
0.296944
0.295972
0.294967
0.302913
0.30256
0.30228
0.30196
0.301402
0.300623
0.299672
0.298417
0.296826
0.295232
0.302999
0.302914
0.30273
0.302605
0.302457
0.302098
0.301453
0.30059
0.299115
0.29651
0.302495
0.302807
0.302893
0.303006
0.303029
0.302866
0.30249
0.301758
0.300655
0.298896
0.301156
0.302415
0.30277
0.302986
0.303129
0.303047
0.302765
0.302093
0.301007
0.299641
0.299243
0.301418
0.30237
0.302792
0.302916
0.302846
0.302544
0.301744
0.300227
0.299568
0.299658
0.301464
0.302168
0.302539
0.302483
0.302353
0.301513
0.299221
0.297153
0.297402
0.298461
0.298322
0.298386
0.298611
0.29881
0.298865
0.298676
0.298325
0.298069
0.297885
0.298772
0.297924
0.297614
0.297218
0.297025
0.296744
0.296582
0.296331
0.296183
0.296022
0.300513
0.299227
0.298701
0.298059
0.29773
0.297287
0.297031
0.296639
0.296401
0.296123
0.301876
0.300698
0.300094
0.299166
0.298646
0.298026
0.297469
0.29704
0.296852
0.296816
0.302556
0.301779
0.301311
0.300625
0.299897
0.299179
0.298523
0.298147
0.298022
0.298064
0.302963
0.302589
0.302205
0.301867
0.30144
0.300932
0.300356
0.299829
0.299492
0.299409
0.3032
0.303028
0.302794
0.302569
0.302422
0.30231
0.302037
0.301556
0.300871
0.300393
0.302485
0.302969
0.302959
0.302896
0.302859
0.302763
0.302561
0.302169
0.301466
0.300768
0.300391
0.301865
0.302674
0.302803
0.302788
0.30272
0.302538
0.302156
0.301341
0.300703
0.299352
0.300901
0.302254
0.302549
0.302506
0.302405
0.301859
0.300683
0.299196
0.29937
0.30545
0.305807
0.306571
0.307177
0.307743
0.308462
0.309215
0.309552
0.309235
0.305687
0.303971
0.305321
0.306008
0.307157
0.307705
0.308283
0.308473
0.307577
0.303994
0.300872
0.303323
0.30432
0.305564
0.30626
0.306693
0.306747
0.305294
0.301518
0.299226
0.298378
0.302941
0.303201
0.303882
0.304115
0.304103
0.302626
0.300203
0.298976
0.298448
0.298211
0.30282
0.302522
0.30229
0.301916
0.301135
0.300055
0.299248
0.298914
0.298614
0.298346
0.303129
0.3025
0.302232
0.301765
0.30099
0.300144
0.299542
0.299257
0.299074
0.298751
0.303628
0.302914
0.302422
0.301992
0.301291
0.300653
0.300377
0.30008
0.299926
0.299683
0.303559
0.303655
0.303007
0.3026
0.302047
0.301549
0.30123
0.301132
0.300872
0.300582
0.301993
0.30385
0.303328
0.303147
0.30292
0.302638
0.302228
0.301813
0.301501
0.301243
0.301603
0.303465
0.303469
0.303204
0.3031
0.302999
0.302805
0.302363
0.301741
0.299927
0.302896
0.302254
0.302436
0.302988
0.30363
0.303624
0.304694
0.306987
0.307879
0.309231
0.301719
0.301865
0.302285
0.30327
0.304144
0.304125
0.303938
0.304692
0.305867
0.307565
0.301502
0.301766
0.302481
0.303874
0.304515
0.304469
0.303994
0.303923
0.30463
0.306139
0.301338
0.301896
0.303326
0.304239
0.304527
0.304299
0.303425
0.30315
0.303798
0.305201
0.301337
0.302752
0.303915
0.304285
0.304289
0.303787
0.302761
0.302531
0.303227
0.304448
0.301548
0.303352
0.304128
0.304156
0.303973
0.303216
0.302205
0.302029
0.302704
0.303142
0.301649
0.303579
0.304246
0.304134
0.303879
0.303201
0.302198
0.301845
0.302003
0.302458
0.301564
0.303614
0.30436
0.304342
0.3039
0.303344
0.302432
0.302111
0.302071
0.302209
0.300632
0.302735
0.304367
0.304556
0.304219
0.303691
0.302973
0.302499
0.302406
0.3024
0.300039
0.301638
0.304003
0.304556
0.304501
0.30416
0.303682
0.303071
0.30256
0.302079
0.302255
0.30207
0.302135
0.302347
0.302905
0.303846
0.304582
0.304571
0.304221
0.304378
0.301981
0.302051
0.302299
0.302964
0.304371
0.305108
0.305463
0.305557
0.305452
0.304895
0.301993
0.302275
0.303046
0.30461
0.305255
0.305526
0.305701
0.305843
0.30583
0.305652
0.302291
0.302993
0.304594
0.305327
0.30551
0.305622
0.305762
0.305877
0.305935
0.305851
0.302512
0.304145
0.305222
0.305519
0.305533
0.305531
0.305628
0.305851
0.306015
0.305796
0.302941
0.304679
0.305396
0.30552
0.305455
0.305401
0.305549
0.305891
0.306093
0.305746
0.303251
0.304832
0.305429
0.305518
0.305438
0.305465
0.305685
0.30596
0.306148
0.305889
0.303369
0.304837
0.305428
0.30557
0.305597
0.305749
0.305776
0.305841
0.306117
0.3062
0.303287
0.304705
0.305346
0.305598
0.305734
0.305757
0.305641
0.305731
0.305962
0.305995
0.303054
0.304657
0.305252
0.305598
0.305744
0.305768
0.30569
0.305655
0.305806
0.306076
0.306456
0.30719
0.307517
0.307533
0.307512
0.3074
0.306838
0.306542
0.306893
0.307068
0.306374
0.307203
0.307562
0.307613
0.307555
0.30722
0.306344
0.305653
0.305651
0.305518
0.306717
0.307587
0.307725
0.307703
0.307555
0.306805
0.305946
0.305388
0.30525
0.304835
0.306903
0.307744
0.307777
0.307647
0.307284
0.306516
0.305785
0.30525
0.30503
0.30484
0.307221
0.307878
0.307738
0.307454
0.307099
0.30648
0.305829
0.305317
0.30502
0.304942
0.307377
0.307917
0.307679
0.307412
0.307055
0.306731
0.306071
0.30564
0.305265
0.305257
0.307487
0.307932
0.307683
0.307467
0.307214
0.306954
0.306406
0.306112
0.3059
0.306007
0.307515
0.307992
0.307818
0.307764
0.307664
0.307441
0.307092
0.306565
0.306348
0.306522
0.307392
0.308068
0.307961
0.307953
0.307971
0.307832
0.307628
0.307173
0.306692
0.30663
0.306911
0.308105
0.30808
0.308071
0.308122
0.308034
0.307938
0.307869
0.307813
0.307927
0.307742
0.308958
0.309265
0.308934
0.308193
0.307463
0.306452
0.30596
0.306346
0.306999
0.307088
0.308744
0.309019
0.308468
0.307802
0.307043
0.306221
0.305233
0.30518
0.305002
0.306914
0.308705
0.308929
0.308258
0.307623
0.306918
0.306121
0.304977
0.304586
0.304098
0.306852
0.308674
0.308802
0.308145
0.307561
0.306988
0.306134
0.305265
0.304401
0.303619
0.306839
0.308663
0.308719
0.3081
0.307576
0.307298
0.306647
0.305615
0.304473
0.3036
0.306847
0.308637
0.308652
0.308095
0.30776
0.30752
0.307177
0.306247
0.304843
0.303818
0.306808
0.308613
0.308608
0.308175
0.307941
0.307717
0.307453
0.306868
0.305469
0.304644
0.306495
0.308543
0.308593
0.308217
0.308044
0.307933
0.30778
0.307324
0.306133
0.305257
0.306044
0.308507
0.308606
0.308233
0.308086
0.30801
0.307954
0.307781
0.307045
0.306698
0.305252
0.308426
0.308607
0.308267
0.308136
0.308072
0.308042
0.308031
0.308055
0.308212
0.308154
0.308448
0.308214
0.308127
0.308037
0.307907
0.307765
0.307568
0.306891
0.305452
0.30764
0.308282
0.308064
0.307905
0.307798
0.307587
0.307407
0.307044
0.306215
0.3055
0.30738
0.308223
0.307875
0.307724
0.307622
0.307429
0.307129
0.306504
0.305813
0.305307
0.306829
0.308174
0.307799
0.307644
0.307565
0.307372
0.306972
0.306289
0.30567
0.305282
0.306112
0.308153
0.307746
0.307579
0.307553
0.307358
0.306924
0.306231
0.305647
0.305471
0.30469
0.308143
0.307734
0.307536
0.307556
0.307407
0.306981
0.306311
0.305901
0.305724
0.302177
0.308127
0.307772
0.30744
0.307544
0.307469
0.307185
0.306568
0.30609
0.305949
0.297925
0.308072
0.307969
0.307316
0.307467
0.30749
0.307344
0.306882
0.306374
0.306158
0.293
0.307949
0.30824
0.307258
0.307378
0.307476
0.307443
0.307296
0.306873
0.306583
0.290841
0.307781
0.3084
0.307241
0.307212
0.307376
0.30745
0.307458
0.307374
0.307286
0.296686
0.305502
0.306507
0.307086
0.307191
0.307182
0.307247
0.307385
0.307545
0.308584
0.297455
0.304703
0.30627
0.306844
0.306998
0.307093
0.307227
0.307376
0.307667
0.308927
0.295575
0.304518
0.306209
0.30676
0.30692
0.307075
0.307214
0.307308
0.307697
0.309099
0.2949
0.304383
0.30619
0.306719
0.306885
0.30709
0.307233
0.307281
0.307245
0.307998
0.29476
0.304374
0.306234
0.30671
0.306872
0.30718
0.307307
0.307223
0.30707
0.306986
0.296405
0.304741
0.306353
0.306718
0.306871
0.307268
0.307317
0.307142
0.307009
0.306797
0.297896
0.30496
0.306436
0.306777
0.306919
0.307292
0.307318
0.307093
0.306864
0.306668
0.299375
0.305058
0.306573
0.306878
0.307009
0.307295
0.307296
0.307064
0.306822
0.306725
0.299826
0.305068
0.306654
0.306984
0.307089
0.307295
0.307257
0.307016
0.306955
0.30717
0.299893
0.304918
0.306689
0.307123
0.307219
0.307324
0.307352
0.307608
0.308028
0.308196
0.307678
0.308274
0.308417
0.3084
0.308101
0.307945
0.30784
0.308124
0.308638
0.307811
0.307024
0.308236
0.308406
0.308396
0.308203
0.308132
0.308231
0.308531
0.308621
0.307542
0.306726
0.308187
0.308429
0.308465
0.308419
0.308409
0.308452
0.308491
0.308085
0.305028
0.305784
0.307898
0.308331
0.308425
0.308427
0.308375
0.308282
0.307804
0.305727
0.304711
0.304975
0.307441
0.30802
0.308223
0.308257
0.308023
0.307378
0.306022
0.30539
0.305677
0.304693
0.306941
0.307405
0.307554
0.307582
0.306999
0.306013
0.305522
0.305482
0.306972
0.3045
0.306509
0.306933
0.306977
0.306571
0.30596
0.305465
0.305329
0.305895
0.307388
0.304822
0.305807
0.306294
0.306443
0.305968
0.305496
0.305292
0.305308
0.306315
0.307786
0.305261
0.305428
0.305482
0.30574
0.305663
0.305303
0.305201
0.305287
0.306345
0.307678
0.305265
0.305236
0.305256
0.305083
0.305079
0.304918
0.304993
0.30522
0.306279
0.30706
0.317702
0.317463
0.316632
0.316221
0.315632
0.314434
0.312406
0.309283
0.298937
0.281002
0.318429
0.31674
0.316165
0.315956
0.315427
0.314184
0.311879
0.307388
0.294887
0.277498
0.318479
0.316548
0.316002
0.31574
0.315161
0.313693
0.310547
0.302536
0.285074
0.279282
0.31858
0.31659
0.315966
0.315538
0.314657
0.312494
0.307041
0.29221
0.285352
0.286278
0.31832
0.316605
0.31587
0.31511
0.3135
0.309328
0.298832
0.288805
0.287183
0.299711
0.31756
0.316531
0.315606
0.31411
0.311137
0.304559
0.293177
0.288459
0.28987
0.305879
0.31734
0.316327
0.315185
0.313177
0.308516
0.300251
0.291262
0.288561
0.294609
0.308198
0.315552
0.31579
0.314146
0.311586
0.306999
0.299221
0.291337
0.288787
0.294961
0.308728
0.313649
0.315478
0.313101
0.310156
0.30622
0.299648
0.292129
0.289407
0.294371
0.30854
0.314698
0.314604
0.311238
0.308839
0.305833
0.301823
0.295068
0.291026
0.293002
0.307911
0.185664
0.188509
0.210098
0.225686
0.221574
0.2259
0.221828
0.169024
0.186956
0.189217
0.165206
0.176632
0.210843
0.223826
0.211175
0.204392
0.189254
0.149606
0.17809
0.182544
0.19093
0.209352
0.228452
0.213214
0.194855
0.190961
0.174577
0.142513
0.156179
0.17783
0.176403
0.22445
0.218118
0.192967
0.181713
0.1685
0.137353
0.130429
0.147734
0.181008
0.15861
0.18711
0.170635
0.157817
0.148127
0.135317
0.132298
0.139658
0.1761
0.178679
0.149466
0.166746
0.162443
0.157247
0.156908
0.159956
0.179305
0.198402
0.208267
0.185958
0.143747
0.204015
0.214334
0.21957
0.220144
0.221313
0.216717
0.218681
0.201969
0.208661
0.134512
0.175793
0.194988
0.219397
0.217068
0.216152
0.214712
0.221585
0.213659
0.221573
0.127861
0.162711
0.167625
0.175999
0.195789
0.204108
0.216174
0.221019
0.213496
0.218302
0.12553
0.152703
0.161873
0.164722
0.180688
0.201074
0.21289
0.213655
0.206808
0.211823
0.030506
0.0301682
0.0298771
0.0304472
0.030707
0.0292045
0.022458
0.0180552
0.016713
0.0163926
0.0300756
0.0298746
0.029951
0.0302196
0.0293671
0.0245566
0.019589
0.0181286
0.0190171
0.0159949
0.0297411
0.029794
0.0298445
0.0296432
0.0272996
0.0217998
0.0184526
0.0176504
0.0156909
0.0155767
0.0295766
0.0296209
0.0295492
0.0288705
0.0263597
0.0219547
0.0187078
0.0164946
0.0159965
0.0167964
0.0293789
0.029408
0.0292757
0.0284934
0.0263239
0.0226641
0.0200411
0.0183045
0.0187814
0.0201016
0.0291742
0.02914
0.0287156
0.0277648
0.0261592
0.0245444
0.0218851
0.0219178
0.0220772
0.0220666
0.0287555
0.0285697
0.028114
0.0274345
0.0262194
0.0256447
0.0243906
0.0239549
0.022827
0.0226644
0.0283858
0.0281727
0.0272532
0.0245063
0.0248328
0.0249112
0.0246749
0.024134
0.0227006
0.0235066
0.0279752
0.0263684
0.0237737
0.0231448
0.0228137
0.0233459
0.0230453
0.023681
0.0248012
0.025566
0.0270178
0.0253045
0.0234981
0.0235584
0.0228039
0.0226625
0.0231767
0.0241307
0.0244617
0.0244365
0.0167233
0.0171159
0.0172872
0.0177008
0.0178858
0.018014
0.0178394
0.0168294
0.0135634
0.00937603
0.0171271
0.0171866
0.0173478
0.0174807
0.017478
0.0170662
0.0157569
0.012368
0.00918215
0.00818654
0.0170534
0.0170432
0.0169613
0.0166262
0.0158948
0.0140757
0.010139
0.00690241
0.00592726
0.00750531
0.0166878
0.0163781
0.0156331
0.0141339
0.0112801
0.0073409
0.00418154
0.00278936
0.00247403
0.00574014
0.0154777
0.0143273
0.0119954
0.00875525
0.00586975
0.00312354
0.00143269
0.000773143
0.000603419
0.00291349
0.0115706
0.00909961
0.00635575
0.0047508
0.00290811
0.00177734
0.000606242
0.000191651
0.000424758
0.00253075
0.00726114
0.00554229
0.00467562
0.00417505
0.00367064
0.00230129
0.000992097
0.000229628
0.000557395
0.00238478
0.00553335
0.00507616
0.00493785
0.00534472
0.00546788
0.00300436
0.00148946
0.000337907
0.000925047
0.00194707
0.00532767
0.00522925
0.0059565
0.0064113
0.00622069
0.00317977
0.00160121
0.000506981
0.00130864
0.00160041
0.00617562
0.00546777
0.00640085
0.00713765
0.00669278
0.00324318
0.00203331
0.000857405
0.00118974
0.000823945
0.00322067
0.00141855
0.00060482
0.000242517
0.000127311
9.94881e-05
0.000138973
0.000228273
0.000496195
0.00181484
0.00433958
0.00215447
0.000748459
0.000223139
6.03424e-05
2.29793e-05
1.36516e-05
2.04771e-05
0.000143987
0.00112744
0.00600742
0.00409736
0.00148608
0.000436503
9.63543e-05
1.95973e-05
2.04604e-06
1.99796e-06
3.55902e-05
0.000402281
0.00766682
0.00651658
0.00417948
0.00167815
0.000655034
0.000164535
6.9964e-06
2.82432e-07
3.17143e-06
5.03822e-05
0.00897724
0.00836626
0.00735388
0.0057546
0.0037272
0.00145405
6.80305e-05
1.09377e-06
6.55261e-07
7.83762e-06
0.00976087
0.00951715
0.0089547
0.00794148
0.00595758
0.00297976
0.000512116
1.15259e-05
7.97954e-07
1.52332e-06
0.00996858
0.00985668
0.00947105
0.00863994
0.00732265
0.00459848
0.00141253
0.00011653
4.94282e-06
8.03423e-07
0.00993889
0.00988485
0.00963852
0.00904561
0.00821975
0.00649985
0.00292043
0.000602762
3.86451e-05
2.32049e-06
0.0096633
0.00979239
0.00966135
0.00931062
0.00871673
0.00763848
0.00475881
0.00160242
0.000201634
1.37759e-05
0.008082
0.00940513
0.00951903
0.00929371
0.00880539
0.00817828
0.00643899
0.00302116
0.000585217
5.52606e-05
0.26257
0.265556
0.261182
0.254932
0.252281
0.251022
0.250478
0.250867
0.252783
0.256924
0.261394
0.268397
0.272197
0.270078
0.264882
0.259812
0.256957
0.257374
0.259238
0.261728
0.254685
0.263485
0.272048
0.276243
0.276382
0.274803
0.272446
0.270607
0.270078
0.268017
0.24987
0.254903
0.26594
0.275591
0.278746
0.279359
0.278863
0.277634
0.274565
0.268377
0.249723
0.253889
0.262697
0.273292
0.277869
0.279268
0.27904
0.27764
0.273047
0.266467
0.251325
0.256064
0.262585
0.269214
0.273867
0.276374
0.276025
0.273439
0.267731
0.260584
0.253408
0.255958
0.25966
0.263316
0.266216
0.267471
0.266266
0.262947
0.258374
0.256497
0.253266
0.254334
0.255392
0.256931
0.257954
0.258209
0.257218
0.2556
0.25502
0.255725
0.253397
0.254139
0.254722
0.255517
0.255898
0.256009
0.255799
0.255593
0.255682
0.256569
0.254101
0.254817
0.256019
0.257162
0.257647
0.257774
0.257786
0.258082
0.25911
0.260984
0.255361
0.258526
0.258187
0.255578
0.253006
0.251937
0.251216
0.250911
0.251101
0.252348
0.25504
0.259055
0.262939
0.265691
0.264145
0.260649
0.256894
0.254835
0.254947
0.257442
0.252965
0.255901
0.261502
0.266577
0.271084
0.27268
0.271393
0.268776
0.26786
0.269419
0.250743
0.251959
0.255622
0.262794
0.270544
0.275947
0.277893
0.277746
0.277375
0.276989
0.250019
0.251186
0.253825
0.258809
0.267516
0.275418
0.278385
0.279497
0.279381
0.278319
0.250354
0.251738
0.254103
0.259178
0.266586
0.273424
0.276799
0.278487
0.27835
0.276899
0.251149
0.252494
0.255494
0.259117
0.264208
0.268171
0.2717
0.273659
0.273526
0.271533
0.251846
0.252785
0.254457
0.256609
0.258574
0.260589
0.262968
0.264371
0.263749
0.262524
0.252641
0.252944
0.253469
0.2543
0.255406
0.256045
0.256814
0.257756
0.257499
0.257806
0.25397
0.253809
0.253962
0.254536
0.255417
0.256075
0.256769
0.25717
0.257438
0.257905
0.252685
0.254696
0.255353
0.254777
0.253337
0.252421
0.251965
0.251449
0.251266
0.251463
0.252776
0.254813
0.257284
0.259917
0.261548
0.260537
0.258296
0.255509
0.25434
0.255096
0.252367
0.2533
0.255741
0.259693
0.263383
0.267228
0.269391
0.26834
0.266412
0.267894
0.251757
0.251905
0.252889
0.255892
0.261394
0.267069
0.27263
0.276089
0.276693
0.27754
0.251704
0.251601
0.252152
0.253719
0.25714
0.263776
0.271858
0.27715
0.27909
0.280207
0.25134
0.25164
0.252258
0.253739
0.256663
0.262546
0.27046
0.276343
0.278537
0.279872
0.251245
0.251671
0.252654
0.254147
0.25716
0.262612
0.268554
0.272884
0.275447
0.276834
0.251581
0.251862
0.252543
0.254007
0.256294
0.2595
0.262647
0.265514
0.268091
0.271031
0.252322
0.252431
0.252677
0.253146
0.253946
0.255304
0.256598
0.258835
0.260785
0.263166
0.253983
0.253852
0.253592
0.253573
0.253863
0.254398
0.255207
0.256655
0.257409
0.258505
0.251801
0.253019
0.253548
0.253494
0.253121
0.252598
0.252299
0.252019
0.251681
0.251585
0.251928
0.253171
0.254682
0.256623
0.258536
0.259128
0.258584
0.257404
0.255118
0.255489
0.251974
0.252415
0.253678
0.256332
0.259231
0.262222
0.265717
0.267818
0.266822
0.267967
0.251961
0.251895
0.25224
0.253759
0.257291
0.261654
0.266475
0.271307
0.274031
0.277064
0.252525
0.251979
0.252053
0.252585
0.254166
0.258137
0.264521
0.270733
0.275724
0.279205
0.252569
0.251961
0.252061
0.252499
0.253664
0.256456
0.26231
0.268877
0.275313
0.278827
0.251997
0.251827
0.252046
0.25261
0.253831
0.256546
0.261355
0.267559
0.273151
0.276197
0.251832
0.251884
0.252093
0.252623
0.253604
0.255635
0.258687
0.263676
0.267538
0.271245
0.252335
0.252375
0.25252
0.252781
0.253134
0.253705
0.25495
0.257924
0.26028
0.265521
0.253897
0.254036
0.25388
0.253642
0.253597
0.253726
0.254099
0.255381
0.256761
0.260182
0.251538
0.252481
0.252717
0.2526
0.252525
0.252446
0.252347
0.252252
0.25214
0.251935
0.251677
0.252615
0.253591
0.255117
0.256417
0.25721
0.257885
0.257727
0.256996
0.257461
0.251726
0.252136
0.25312
0.25501
0.257412
0.259772
0.262072
0.265885
0.266831
0.26903
0.25185
0.251848
0.252125
0.253334
0.256291
0.259541
0.262412
0.267259
0.270421
0.275252
0.252503
0.251998
0.252044
0.252439
0.253754
0.257236
0.261086
0.26601
0.269924
0.275408
0.252773
0.252132
0.252087
0.252311
0.253094
0.255317
0.259548
0.263967
0.26859
0.273943
0.252562
0.252046
0.252066
0.252338
0.253094
0.254692
0.257696
0.262472
0.267228
0.272577
0.252268
0.25203
0.252107
0.252435
0.252954
0.25371
0.255226
0.258841
0.264264
0.269951
0.252464
0.252419
0.252582
0.252839
0.253078
0.253316
0.253817
0.255354
0.258238
0.265007
0.253618
0.253912
0.254317
0.254247
0.253921
0.253737
0.253842
0.254358
0.255543
0.259956
0.251673
0.252326
0.252268
0.252265
0.252291
0.252273
0.252229
0.252245
0.252413
0.252421
0.25169
0.252454
0.253405
0.254109
0.254949
0.255439
0.256111
0.257468
0.257896
0.259563
0.251672
0.252128
0.253138
0.254503
0.256715
0.258562
0.26013
0.263766
0.265679
0.269976
0.25171
0.251818
0.252236
0.253486
0.256288
0.258707
0.2606
0.264701
0.267693
0.272973
0.252091
0.251943
0.252069
0.252554
0.254072
0.257514
0.25987
0.263568
0.266773
0.272164
0.252638
0.252149
0.252139
0.25238
0.253205
0.255544
0.258815
0.261988
0.264779
0.268771
0.252547
0.25213
0.252142
0.2524
0.253143
0.254424
0.256866
0.260367
0.263828
0.267616
0.252368
0.252157
0.252213
0.252518
0.252945
0.253409
0.254372
0.256756
0.261384
0.266614
0.252503
0.252496
0.252824
0.253178
0.25324
0.253365
0.253647
0.254518
0.256843
0.263754
0.253185
0.253538
0.254455
0.254805
0.254695
0.254114
0.253926
0.2542
0.255116
0.259554
0.252163
0.252334
0.252284
0.252245
0.252253
0.252189
0.252037
0.252069
0.252423
0.252709
0.251901
0.25247
0.253141
0.253207
0.253352
0.253629
0.254172
0.255337
0.257285
0.259846
0.25174
0.252296
0.253349
0.254408
0.256079
0.257381
0.258884
0.262318
0.264794
0.270304
0.251709
0.251949
0.252779
0.254152
0.256467
0.258476
0.260027
0.263622
0.266574
0.272032
0.251842
0.251979
0.252349
0.253304
0.255542
0.258151
0.259758
0.262879
0.265832
0.271278
0.252213
0.25217
0.252376
0.252901
0.253954
0.256523
0.258973
0.261405
0.263595
0.267613
0.252391
0.252305
0.252466
0.252843
0.253515
0.254636
0.25694
0.260112
0.262559
0.265816
0.252397
0.252399
0.252637
0.252956
0.253204
0.253557
0.254388
0.256627
0.260882
0.265063
0.252528
0.252681
0.253344
0.253692
0.253672
0.253629
0.253778
0.25452
0.256788
0.263078
0.252913
0.253506
0.254648
0.255104
0.255081
0.254604
0.254166
0.25432
0.255147
0.259524
0.253255
0.252597
0.252379
0.252284
0.252223
0.252048
0.251841
0.251869
0.252384
0.253027
0.252424
0.252632
0.252737
0.252688
0.252706
0.252773
0.253055
0.253771
0.255425
0.259243
0.25202
0.252645
0.253487
0.254176
0.255057
0.255994
0.257504
0.260676
0.26325
0.269653
0.251858
0.252465
0.253674
0.254767
0.256548
0.258304
0.259824
0.263269
0.266191
0.271988
0.251909
0.252366
0.253367
0.254442
0.256412
0.258451
0.259846
0.262878
0.265877
0.271429
0.252128
0.252467
0.253324
0.254086
0.255497
0.257611
0.259362
0.261477
0.263658
0.267845
0.252374
0.252868
0.2535
0.254089
0.254592
0.25546
0.257485
0.26031
0.262488
0.265752
0.252572
0.253243
0.253962
0.254267
0.254276
0.254347
0.254936
0.257066
0.261132
0.264922
0.25268
0.253433
0.254427
0.254646
0.2546
0.254348
0.25434
0.254932
0.257225
0.263289
0.2529
0.253795
0.254975
0.255353
0.255328
0.254899
0.254587
0.254698
0.255476
0.259867
0.254035
0.2531
0.25262
0.252387
0.252185
0.251843
0.25157
0.251615
0.252419
0.25325
0.253375
0.252849
0.252666
0.252473
0.252357
0.252294
0.252427
0.252957
0.254368
0.258546
0.252571
0.25289
0.253443
0.253545
0.253731
0.254286
0.255689
0.258176
0.26043
0.266691
0.25232
0.253165
0.25415
0.254901
0.256413
0.257893
0.259512
0.263111
0.266036
0.2719
0.252298
0.253135
0.254203