/*--------------------------------*- C++ -*----------------------------------*\
  =========                 |
  \\      /  F ield         | OpenFOAM: The Open Source CFD Toolbox
   \\    /   O peration     | Website:  https://openfoam.org
    \\  /    A nd           | Version:  9
     \\/     M anipulation  |
\*---------------------------------------------------------------------------*/
FoamFile
{
    format      ascii;
    class       volScalarField;
    location    "80";
    object      d.gas;
}
// * * * * * * * * * * * * * * * * * * * * * * * * * * * * * * * * * * * * * //

dimensions      [0 1 0 0 0 0 0];

internalField   nonuniform List<scalar> 
137980
(
0.00969428
0.00969816
0.00966694
0.00959342
0.00950502
0.00941824
0.00932661
0.00918086
0.00904671
0.00876937
0.00971194
0.00971157
0.0096648
0.00957589
0.00946955
0.00936274
0.00925245
0.00909806
0.00892383
0.00876021
0.00972703
0.00972538
0.00967249
0.00957427
0.00945612
0.00933154
0.00920117
0.00904418
0.00885927
0.00875473
0.00974986
0.00974617
0.00969218
0.00959304
0.00946737
0.00932579
0.00917892
0.00901861
0.00885158
0.00876521
0.00977486
0.00977047
0.00972184
0.00962999
0.0095071
0.00935333
0.009192
0.00903296
0.00887797
0.0088027
0.00979072
0.00979054
0.00975637
0.00968015
0.00957322
0.00942838
0.00924956
0.00908131
0.00893551
0.00886595
0.00978691
0.00979494
0.00978152
0.00973312
0.00964933
0.00953596
0.00938701
0.00921118
0.00904943
0.00895197
0.00974651
0.00978118
0.00978634
0.00976816
0.00971605
0.00963436
0.00952937
0.00940671
0.00928997
0.00919041
0.00967442
0.00973603
0.0097718
0.00977395
0.00975671
0.00970216
0.00962281
0.00952683
0.00943289
0.00937711
0.00961059
0.00967761
0.00973074
0.00976036
0.00976561
0.00974841
0.00969686
0.0096096
0.0095215
0.00942433
0.00968823
0.00968418
0.00964021
0.0095485
0.00943361
0.00929968
0.00908567
0.00898402
0.00905147
0.00862621
0.00970231
0.00969244
0.00962772
0.00951751
0.00937972
0.00920824
0.00894588
0.00883739
0.0088666
0.00854555
0.00971699
0.00970196
0.00962604
0.00950533
0.00935328
0.00914628
0.00883845
0.00866927
0.00865409
0.00842629
0.00973919
0.00972062
0.00964419
0.00951871
0.00934868
0.00911566
0.00876993
0.0084878
0.00842273
0.00833496
0.00976015
0.00974485
0.00967621
0.00955696
0.00938305
0.00913599
0.00880005
0.00841659
0.00826492
0.0082315
0.0097672
0.00976171
0.00971732
0.00961476
0.00945589
0.00921573
0.00888584
0.0084671
0.00825736
0.00818896
0.00974386
0.0097565
0.00974773
0.00968186
0.00955298
0.00935803
0.00906969
0.00866517
0.00833066
0.00821349
0.00965008
0.0097209
0.0097418
0.00972979
0.00964814
0.00950674
0.00930185
0.00901972
0.00864859
0.00836558
0.00950715
0.00963345
0.00970608
0.00973583
0.0097122
0.00961906
0.00947656
0.00928844
0.00907587
0.00886155
0.009469
0.00956205
0.00964385
0.00971288
0.009735
0.00969919
0.00961104
0.00946967
0.00928875
0.00924772
0.00968326
0.00966862
0.0096059
0.00949157
0.00933947
0.00910581
0.00883847
0.00886471
0.00902338
0.00843976
0.00969298
0.00966558
0.00957439
0.0094313
0.00922954
0.00890954
0.00867414
0.00870278
0.00885636
0.00838464
0.00970363
0.00966547
0.0095603
0.00939523
0.00914697
0.0087556
0.00851406
0.0085226
0.00868392
0.00830469
0.00972089
0.00967627
0.00956482
0.00938519
0.00910665
0.00865498
0.00835676
0.00832361
0.00845342
0.00823411
0.00973246
0.00969603
0.00959199
0.00941003
0.00911209
0.00861608
0.00822888
0.00816251
0.00824435
0.00812846
0.00972515
0.00971055
0.00963758
0.00947237
0.00918566
0.00868935
0.00813872
0.00799388
0.00807929
0.00802651
0.00967068
0.00969884
0.00967568
0.00955792
0.00930994
0.00888225
0.00818903
0.00787143
0.00782521
0.00792432
0.00951849
0.00965023
0.00967974
0.00962999
0.00945377
0.00911534
0.00848639
0.00791047
0.00771916
0.00771205
0.00935008
0.00951874
0.00963732
0.00965875
0.009569
0.00932497
0.00889697
0.00817486
0.00781177
0.0076944
0.00934059
0.00944791
0.00954731
0.00965804
0.00964027
0.0094867
0.00918099
0.0087476
0.00836566
0.00834603
0.00966638
0.00962622
0.00952679
0.00937069
0.00911047
0.00863022
0.00858279
0.00882192
0.00882724
0.00773818
0.0096621
0.00959362
0.00944997
0.00921602
0.0087601
0.00843146
0.00845813
0.00864077
0.00865495
0.00759908
0.00965989
0.00957195
0.00939691
0.00910395
0.00857198
0.00827678
0.00829345
0.00847468
0.00849778
0.00750165
0.00966225
0.00956476
0.00937451
0.00905054
0.00847354
0.00814803
0.00813301
0.00830941
0.00837976
0.00748463
0.0096623
0.0095744
0.00938698
0.00905031
0.00845076
0.00804079
0.00798644
0.00816351
0.00826981
0.00751551
0.00965215
0.00959176
0.00943819
0.00912
0.00852567
0.00797449
0.00785859
0.00801344
0.00814495
0.00762227
0.00960547
0.0095987
0.00949907
0.00923714
0.00870614
0.00798161
0.00775424
0.00781906
0.00794537
0.00772182
0.00948138
0.00956618
0.00953681
0.00935717
0.00892583
0.00811003
0.00771607
0.00762848
0.0077834
0.00767313
0.00933301
0.00947869
0.00953062
0.00944772
0.00913098
0.00844296
0.00775221
0.00752387
0.00748617
0.00750337
0.00932078
0.00941943
0.00948865
0.00950655
0.0092877
0.00871651
0.00796082
0.00761689
0.00747487
0.0075965
0.00958413
0.00947489
0.00922821
0.00890118
0.00863103
0.00860193
0.00881027
0.0088634
0.00786482
0.00687615
0.00952479
0.00932362
0.00887398
0.00851512
0.00842226
0.00850841
0.00862823
0.0085382
0.00730648
0.00690408
0.00947562
0.00920205
0.00865363
0.00831544
0.00824767
0.00834057
0.00837955
0.00804379
0.00718921
0.00716568
0.00944104
0.00914477
0.00855204
0.00816245
0.00808054
0.00812641
0.00812484
0.00770449
0.00716702
0.00735692
0.00942658
0.00914243
0.00857669
0.00807352
0.00794333
0.0079347
0.00792473
0.0075434
0.00715313
0.00727267
0.00943306
0.00919722
0.0087147
0.00806589
0.00783014
0.00778904
0.00778412
0.00754024
0.00715947
0.00713645
0.00943496
0.00927804
0.00888995
0.00818246
0.00777749
0.00766
0.00766672
0.00755127
0.00719702
0.00712879
0.00939512
0.00933645
0.00906109
0.0084691
0.00781209
0.00757452
0.00753067
0.0075161
0.00730408
0.00717931
0.00932145
0.00934617
0.00919525
0.00876967
0.00798809
0.00757528
0.00741398
0.00743793
0.00728622
0.00717043
0.00931307
0.00933722
0.00926896
0.00898511
0.00827565
0.00765087
0.00739547
0.00727261
0.00719235
0.00707625
0.00914713
0.00911779
0.00910628
0.0090106
0.00883544
0.00887616
0.00888528
0.00815749
0.00684923
0.00685332
0.00884033
0.00873251
0.00868186
0.00865157
0.0086467
0.00864759
0.00829038
0.00730596
0.00708782
0.00807059
0.00859221
0.00848191
0.0084376
0.00841625
0.00838707
0.00815386
0.00755714
0.00737511
0.0078565
0.00878591
0.00842275
0.00826402
0.00819565
0.00814625
0.00801051
0.00767843
0.0075442
0.00761466
0.0085789
0.00899273
0.00831723
0.00808956
0.00797934
0.00787596
0.00767346
0.00757718
0.00758447
0.00800527
0.00876536
0.00898194
0.00831365
0.00796081
0.00776067
0.00762775
0.00755004
0.00755647
0.0076953
0.00825065
0.00873261
0.00883393
0.00839664
0.00794738
0.00762317
0.00749796
0.00747922
0.0075269
0.00773413
0.00824942
0.0085942
0.00842856
0.00859471
0.00801482
0.00763308
0.00744027
0.00740403
0.00748685
0.00769611
0.00816656
0.00837923
0.00792343
0.00877837
0.00821803
0.00770727
0.00745282
0.00736758
0.00740916
0.00760013
0.00797554
0.00817222
0.00786034
0.008974
0.00854828
0.00789728
0.00751531
0.00736085
0.00731016
0.00743142
0.00759096
0.00771577
0.00760039
0.00911339
0.00900338
0.00894608
0.00879837
0.00858618
0.00801715
0.00727658
0.00716376
0.00775184
0.00800189
0.00877896
0.00873737
0.00865575
0.00842879
0.00788448
0.00747086
0.00738633
0.00786207
0.00856975
0.00879445
0.00853015
0.00850057
0.00832214
0.00792108
0.00758868
0.00752593
0.00776094
0.00859594
0.00892466
0.00905991
0.00827658
0.00819529
0.0079187
0.00767228
0.00760493
0.00768599
0.00835073
0.008875
0.00904375
0.00910841
0.00800278
0.00787543
0.00767701
0.00762152
0.00765491
0.00798805
0.00868298
0.00895261
0.00902354
0.00900089
0.0077773
0.00765739
0.00759293
0.00760431
0.00774725
0.00826827
0.00877517
0.00891605
0.00886743
0.00853738
0.00764351
0.0075576
0.00753766
0.00758951
0.0078276
0.00840563
0.0087388
0.0088003
0.00847152
0.00798479
0.0075967
0.00750373
0.0074936
0.00755596
0.00780451
0.00837103
0.00864817
0.00867666
0.00828546
0.00778391
0.00762907
0.00749712
0.00746373
0.00751633
0.00772574
0.00825141
0.0085232
0.00858954
0.00828015
0.00780527
0.00767575
0.00750328
0.00745675
0.00745588
0.00757461
0.00798841
0.00825441
0.00839836
0.0082132
0.00783137
0.00788018
0.00784603
0.00797229
0.00804882
0.00820862
0.00835322
0.00848083
0.00858123
0.00863339
0.00865017
0.00809674
0.00811885
0.00827377
0.00834628
0.00850185
0.00865224
0.00878793
0.00887743
0.0089432
0.00898173
0.00820332
0.00826891
0.00839202
0.00846851
0.00865845
0.00879184
0.00889323
0.0089597
0.00898961
0.00902422
0.00820145
0.00828865
0.00840174
0.00856264
0.00876286
0.00887609
0.00893363
0.00892499
0.00887193
0.00883884
0.00814963
0.00824575
0.00838752
0.00861177
0.00879821
0.00887862
0.00885436
0.00868418
0.00852094
0.00844731
0.00803477
0.00815899
0.00834604
0.00860258
0.00878246
0.00884185
0.00876913
0.00854429
0.00831248
0.00819395
0.00789554
0.00804092
0.00826743
0.00855273
0.00876437
0.00884367
0.00880626
0.0085857
0.00824552
0.00808449
0.00777657
0.0079043
0.00816178
0.00845307
0.00870879
0.00883571
0.0088691
0.00875708
0.00837845
0.00805033
0.00771033
0.00778119
0.00800265
0.00826331
0.00857185
0.00877298
0.00885121
0.00881583
0.00864554
0.008109
0.00767036
0.00767393
0.0078498
0.00805299
0.00822924
0.00850855
0.00867577
0.00863157
0.00849687
0.00809855
0.00824423
0.00819523
0.00831735
0.00836772
0.00845146
0.00850627
0.00857988
0.00862023
0.00865767
0.00867418
0.00840711
0.00842386
0.00855072
0.00860389
0.00867353
0.00870096
0.00872011
0.00873401
0.00876435
0.00880177
0.00857417
0.00864191
0.00876117
0.00880658
0.00882378
0.00880589
0.00875578
0.00871782
0.00869579
0.00868982
0.00864843
0.00879644
0.00890621
0.00894734
0.00894634
0.00888908
0.00878282
0.00867997
0.00860662
0.00857424
0.00862306
0.00886162
0.00899607
0.00905442
0.00906295
0.00899621
0.00884051
0.00865104
0.00853171
0.00849307
0.00851422
0.00881705
0.00899342
0.00911094
0.00915362
0.00912414
0.00897141
0.00869551
0.00850489
0.00845531
0.00830448
0.00867117
0.00892865
0.00907505
0.00915973
0.00918677
0.00911356
0.00892052
0.00860858
0.00845377
0.00807361
0.00846602
0.00877262
0.008943
0.00902746
0.00909546
0.00909688
0.00901428
0.00878849
0.00846084
0.0079331
0.00825233
0.00849769
0.008665
0.00868788
0.00877349
0.00886235
0.0088463
0.00876645
0.00845769
0.00783088
0.0080621
0.00827247
0.00828045
0.00823504
0.00841852
0.00853515
0.00851481
0.00845282
0.00832551
0.00822965
0.00816453
0.00816042
0.00818248
0.00821374
0.00825591
0.00829634
0.00833912
0.00836837
0.00838454
0.00849501
0.00845522
0.00845118
0.00845844
0.00847905
0.0084962
0.00852986
0.00856187
0.00860998
0.00865189
0.00865644
0.00867308
0.00869149
0.00869424
0.00868861
0.00867607
0.00866796
0.00866916
0.00868251
0.00871112
0.00881519
0.00889295
0.00892425
0.00893829
0.00892346
0.00887114
0.00881167
0.00875836
0.00872171
0.00871446
0.00882906
0.00901011
0.00908731
0.00912728
0.00913635
0.00908499
0.00897766
0.00884714
0.00873188
0.00868101
0.00876366
0.00896717
0.00913055
0.009228
0.00926319
0.00925702
0.00918813
0.00904865
0.00882946
0.00865205
0.00848953
0.00882761
0.0090695
0.00920533
0.00928036
0.00928741
0.00925043
0.00913785
0.00894392
0.00864776
0.00826653
0.00857614
0.00892825
0.00911539
0.00918876
0.00918304
0.0091539
0.00908207
0.00895641
0.00866022
0.00818429
0.00839438
0.00870665
0.00894262
0.00892881
0.00888065
0.00886982
0.00883068
0.00875696
0.0085682
0.00814561
0.0083607
0.00862312
0.00865697
0.00851687
0.00850088
0.00855731
0.00855136
0.00854021
0.00848476
0.00781111
0.00762449
0.00756327
0.00752901
0.00752533
0.00757961
0.00765533
0.00776079
0.00783459
0.00792465
0.00812891
0.00805817
0.00803697
0.00803284
0.00805402
0.00810934
0.00819385
0.0082947
0.00837062
0.00846574
0.00826698
0.00823124
0.00822355
0.00823913
0.00827427
0.00832041
0.00838985
0.00847418
0.00854821
0.00865184
0.00849283
0.00848523
0.00848136
0.00848108
0.00849048
0.0085139
0.00855099
0.00859183
0.00865359
0.00873667
0.00866898
0.00871781
0.00873716
0.00874881
0.00875411
0.00875915
0.00876538
0.00878103
0.00880916
0.00882592
0.00875284
0.00884626
0.00893414
0.00898025
0.00900996
0.00902705
0.00902197
0.00899688
0.00900064
0.00895392
0.00862292
0.00879658
0.00896721
0.00908021
0.0091496
0.00918201
0.0091881
0.00916428
0.00915025
0.00905867
0.00837821
0.00864219
0.00889587
0.00906012
0.00915084
0.00918888
0.00919871
0.00919318
0.0091697
0.00907662
0.00826872
0.00838557
0.0087113
0.00897117
0.00906403
0.00907904
0.00905425
0.00902003
0.00897509
0.00884208
0.00826582
0.00833134
0.00860893
0.00885775
0.00885398
0.0088149
0.00880959
0.00880036
0.00879369
0.00870872
0.00846451
0.00850763
0.00879028
0.00892574
0.00898837
0.00900187
0.00892746
0.00868232
0.00806981
0.00734681
0.00803879
0.00830463
0.0085043
0.00863336
0.00867315
0.00856928
0.00822384
0.0078559
0.00771059
0.00770221
0.00786328
0.00791469
0.00804735
0.0081059
0.00810421
0.00797095
0.00790451
0.00788416
0.0080307
0.00852009
0.00784095
0.00782694
0.00786471
0.00790216
0.00792162
0.00792741
0.0079634
0.00815777
0.00860327
0.00880371
0.00795427
0.00785924
0.00786494
0.0079016
0.00793746
0.00800006
0.00819114
0.00856621
0.00879067
0.00890417
0.0081696
0.0079951
0.0079562
0.00796699
0.00802928
0.00816891
0.00842734
0.00872151
0.00886067
0.00892118
0.0082481
0.00819465
0.00810819
0.00810555
0.00816136
0.00831998
0.00859085
0.00885655
0.00895954
0.00897718
0.00820196
0.00833347
0.00830227
0.00826079
0.00827123
0.00837027
0.00858173
0.00884939
0.00899747
0.00901667
0.00808245
0.00831231
0.00841864
0.00844726
0.00845063
0.00847474
0.00856048
0.00877904
0.00894638
0.00893464
0.00818372
0.00821643
0.00848038
0.00857809
0.00856106
0.00853943
0.00855612
0.00863614
0.00879802
0.00884319
0.00720588
0.00724836
0.00748434
0.00769074
0.00777248
0.00766975
0.00778938
0.00817478
0.0085003
0.00878823
0.00750824
0.00766972
0.0078155
0.00794945
0.00800857
0.00797647
0.00781982
0.00784289
0.00799894
0.00831327
0.00771561
0.00781005
0.00790951
0.00801432
0.00805282
0.00802227
0.00793059
0.00781994
0.00789599
0.00819635
0.00790006
0.00792468
0.00800616
0.00808836
0.00808473
0.0080419
0.00795544
0.00787539
0.00797286
0.0082788
0.00796058
0.00797792
0.00807736
0.00813861
0.00812664
0.00807415
0.00802097
0.00800912
0.00816235
0.00839725
0.00798348
0.00805136
0.00817862
0.00820097
0.00816891
0.00813877
0.00812615
0.00814
0.00829873
0.0084388
0.00800248
0.0081174
0.00822983
0.00826348
0.00823666
0.00822156
0.0082156
0.00824113
0.00835194
0.0084656
0.00806639
0.00814796
0.00826363
0.00833883
0.00832873
0.00831151
0.00828409
0.00828937
0.0083822
0.00851652
0.00818323
0.00815968
0.00827672
0.00838981
0.00842959
0.00842109
0.00838728
0.00836484
0.0084459
0.00851314
0.00835552
0.00822394
0.00830331
0.00841396
0.00846605
0.00848044
0.00844707
0.00839247
0.00844489
0.00851718
0.00691227
0.00709948
0.00723769
0.00745639
0.0077476
0.00794683
0.00803668
0.00804098
0.00802651
0.00797594
0.00742873
0.00756816
0.00767359
0.00783954
0.00803442
0.00817606
0.0082338
0.00823014
0.00820102
0.00819915
0.00769435
0.00774455
0.00783331
0.00800058
0.00817843
0.00831071
0.00838493
0.00837442
0.00832615
0.00830304
0.00779614
0.00783123
0.00796219
0.00819159
0.00837389
0.00848317
0.00848772
0.00845568
0.00838797
0.00836062
0.00783856
0.00790065
0.00812452
0.00835033
0.00849514
0.00854713
0.00852475
0.00846973
0.00840589
0.00838268
0.00787813
0.00799127
0.00825185
0.00844683
0.00855976
0.00857256
0.00853547
0.00846761
0.00843065
0.00840752
0.0079418
0.00806125
0.00831145
0.00849803
0.00858999
0.00858797
0.00852626
0.00846258
0.00844513
0.00844038
0.00801493
0.0080977
0.00833674
0.00851814
0.00860055
0.00859398
0.00851138
0.00844577
0.00844119
0.00844807
0.0080876
0.00812906
0.00834556
0.00850989
0.00858018
0.00857761
0.00849227
0.00841533
0.0083871
0.00835849
0.00815642
0.00818559
0.00836558
0.0084819
0.00852097
0.00848324
0.00841698
0.00837272
0.00836193
0.00840382
0.00766995
0.00782192
0.00805001
0.00821625
0.00832612
0.00843656
0.00851288
0.00848944
0.00837567
0.00832634
0.00765283
0.00783906
0.0081221
0.00834876
0.00850938
0.00862185
0.00866226
0.00864645
0.00857423
0.0085298
0.00776527
0.00799004
0.00829563
0.00854308
0.00872847
0.00883867
0.00884632
0.00881703
0.00873643
0.00869034
0.00781231
0.00806177
0.00838918
0.00869255
0.00887346
0.00894971
0.0089495
0.00891813
0.00883487
0.00875599
0.00789181
0.00820454
0.00852474
0.00879633
0.00893381
0.00898903
0.00898444
0.00894868
0.00887134
0.00875942
0.00796018
0.00827679
0.00858506
0.00883247
0.00895117
0.00899522
0.00898818
0.00894697
0.00886757
0.00875324
0.00804857
0.00835267
0.00861389
0.00883878
0.00893114
0.00895365
0.00895297
0.00892233
0.00884668
0.00872711
0.00810595
0.0083901
0.00862042
0.00879052
0.00884425
0.00885173
0.00885661
0.00885492
0.00881407
0.00869658
0.00814754
0.0084262
0.00860668
0.00871967
0.00874446
0.00871296
0.00870747
0.00870697
0.00867972
0.0086142
0.00816905
0.00844962
0.00859949
0.00866402
0.00865988
0.00861242
0.00860275
0.00862034
0.00865574
0.00868886
0.00795747
0.0083018
0.00851057
0.00866741
0.00875954
0.00884804
0.00889446
0.00883606
0.00866159
0.00843469
0.00788715
0.00826448
0.00853168
0.00873279
0.00885815
0.00894674
0.00899034
0.00897222
0.0088777
0.00884131
0.00794313
0.00834796
0.00862901
0.00882372
0.00893403
0.00901315
0.00905998
0.00905594
0.00901357
0.00897856
0.00798254
0.00838651
0.00867039
0.00886477
0.00896701
0.00903945
0.00908772
0.00910262
0.00908691
0.00904697
0.00806386
0.00846703
0.00872308
0.00888743
0.00897798
0.00904485
0.00909224
0.00911644
0.00910831
0.00905819
0.00811445
0.00850774
0.00874742
0.0088935
0.00896739
0.0090187
0.00906765
0.00910451
0.00910084
0.00902991
0.0081903
0.00857313
0.00876909
0.00888111
0.0089199
0.0089559
0.00900652
0.00905772
0.00907008
0.00898832
0.00823823
0.00860769
0.00877836
0.00884497
0.00885295
0.00886737
0.00891464
0.00896934
0.0090026
0.00897324
0.00827293
0.00864884
0.00878867
0.00881698
0.00879019
0.00878711
0.00882364
0.00886259
0.00885762
0.00883899
0.00828928
0.00867836
0.00880032
0.00879522
0.00875104
0.00874475
0.008777
0.00881111
0.00884148
0.00891328
0.00763427
0.00776831
0.00790802
0.00808851
0.00821112
0.00830896
0.00834896
0.00839515
0.00845662
0.00867832
0.0075864
0.00772522
0.0078702
0.00809067
0.0082399
0.00833756
0.00842843
0.00847981
0.00860092
0.0086666
0.00759131
0.00771587
0.00783627
0.00806201
0.00823877
0.00834996
0.00847093
0.00858368
0.0087016
0.00887798
0.00763413
0.00772907
0.00780152
0.00798539
0.00818143
0.00834135
0.00850836
0.0086647
0.00882637
0.00901484
0.00768247
0.00777595
0.00778828
0.00793436
0.00812949
0.00831121
0.00852332
0.00870184
0.00887796
0.0090799
0.00772398
0.00785366
0.00779068
0.00788442
0.00807672
0.00825679
0.00850449
0.00870938
0.0088912
0.00909148
0.00774493
0.00798185
0.00783122
0.00786161
0.00801915
0.00818317
0.008416
0.00864901
0.00881713
0.00902327
0.00769782
0.00814742
0.00792925
0.00785556
0.00798874
0.00810467
0.00831781
0.00855736
0.00872213
0.00886732
0.00761814
0.00828587
0.00811607
0.00788923
0.00797737
0.00805629
0.00816807
0.00840795
0.00860579
0.00872054
0.00758723
0.00837899
0.00836865
0.00799506
0.00799264
0.00804339
0.00808141
0.00815355
0.00828098
0.00839394
0.00740295
0.00790833
0.00808675
0.00817044
0.00824859
0.00832829
0.00844277
0.00857831
0.00860586
0.00852237
0.00744324
0.0078642
0.00807307
0.00816845
0.00826075
0.008353
0.00848656
0.00862923
0.00864468
0.00861146
0.0073982
0.00787497
0.00811299
0.00818608
0.0082635
0.00835799
0.00850199
0.00865324
0.00871052
0.00872782
0.0073796
0.00790236
0.00814754
0.00819499
0.00825754
0.00835387
0.00850876
0.00868106
0.00877944
0.00879719
0.00739091
0.00797097
0.00821121
0.00822402
0.00824428
0.00833061
0.00850714
0.00869656
0.00882326
0.00888789
0.00748475
0.00805643
0.00826672
0.0082436
0.00822353
0.00829075
0.00848393
0.008703
0.00884936
0.00896939
0.00753568
0.00816002
0.00833577
0.00827934
0.00821129
0.00825673
0.00844162
0.00869676
0.00884692
0.00896092
0.00760811
0.00823855
0.00840375
0.0083119
0.00821029
0.00824439
0.00840398
0.00865536
0.00878497
0.00886178
0.00763521
0.008295
0.00848078
0.0083627
0.00822922
0.00824605
0.00839241
0.008634
0.00875795
0.00886023
0.00763949
0.00832832
0.008543
0.00841178
0.00828804
0.00828273
0.00839642
0.00861577
0.00876926
0.00888758
0.00793814
0.00827782
0.00843007
0.00849355
0.0085211
0.00852984
0.00847842
0.00831472
0.00824777
0.00823202
0.00800592
0.00822266
0.00832861
0.00838936
0.00841547
0.00842051
0.00836969
0.00826024
0.0082056
0.00811703
0.00788629
0.00813263
0.00823255
0.00828986
0.00831315
0.0083075
0.00824748
0.00815495
0.00808865
0.00803781
0.00772661
0.0080178
0.00813927
0.00819654
0.00821712
0.00819244
0.00813621
0.00809574
0.00808638
0.00817175
0.00757286
0.00790838
0.008053
0.00811651
0.00813964
0.00812779
0.00810635
0.0081038
0.00816121
0.00839875
0.00747786
0.0077877
0.00796634
0.00804852
0.00808855
0.00810416
0.00811234
0.00814511
0.00828617
0.00846986
0.00741327
0.00769077
0.00788194
0.00797743
0.00805469
0.00809649
0.00813293
0.00822295
0.00837547
0.00850037
0.00741406
0.00757978
0.00779841
0.00792096
0.00800052
0.00808758
0.00816832
0.00827595
0.0084282
0.00857272
0.00745504
0.00751899
0.00770487
0.00785776
0.00793793
0.00806013
0.00816179
0.00831075
0.00848976
0.00857358
0.00752471
0.00750233
0.00765359
0.00782497
0.007895
0.00799321
0.00811365
0.008289
0.00847794
0.00848039
0.00887738
0.00887783
0.00904903
0.00912959
0.00919904
0.00918305
0.00908503
0.00895919
0.00887784
0.00878949
0.00878578
0.00887844
0.00904921
0.0091154
0.00914794
0.0091144
0.00901131
0.00889966
0.00880905
0.00864504
0.00867952
0.00885438
0.00899125
0.0090468
0.00906138
0.00903132
0.0089361
0.00882209
0.00867628
0.00858478
0.00858165
0.00876881
0.00888834
0.00894169
0.00895882
0.00894398
0.00883455
0.0086946
0.00861856
0.00864248
0.00851938
0.00866908
0.00876767
0.0088166
0.00883727
0.00879698
0.00868212
0.00862639
0.00861467
0.00876595
0.00845988
0.00860382
0.00867158
0.00869801
0.00869738
0.00866843
0.0086187
0.00859296
0.00863333
0.00888009
0.00843383
0.00853819
0.00858985
0.00860305
0.00860717
0.00858658
0.00856422
0.0085795
0.00867473
0.00891036
0.00840444
0.00847927
0.00852217
0.00852599
0.00852902
0.00851313
0.00851905
0.0085577
0.00867325
0.00891027
0.00835892
0.00835921
0.00841721
0.00843973
0.00845224
0.00846915
0.00847929
0.00852657
0.00864998
0.00889813
0.00831158
0.00831822
0.00836031
0.00836292
0.0083707
0.00839192
0.0084114
0.00845877
0.00859565
0.00885205
0.00972257
0.00974997
0.00969348
0.00949007
0.00932676
0.0092577
0.00912315
0.00928061
0.00969306
0.0098099
0.00973353
0.00972035
0.00961474
0.00943788
0.00932646
0.00922181
0.00913829
0.00925932
0.00954728
0.00975868
0.0095372
0.00953236
0.00943494
0.00937633
0.00931942
0.00923425
0.009171
0.00927921
0.00956725
0.0097462
0.00952538
0.00937075
0.00937127
0.00936517
0.00933394
0.00928705
0.00929216
0.00941295
0.00956583
0.00971719
0.00958902
0.00939998
0.00942442
0.00942361
0.00942995
0.00944756
0.00949474
0.00956479
0.00955865
0.00968947
0.0095943
0.00947218
0.00952537
0.00954374
0.00954739
0.0095737
0.00958787
0.00957928
0.00952568
0.00970381
0.00961324
0.00941178
0.00946685
0.00948519
0.00951347
0.00952653
0.00955755
0.00956376
0.00963879
0.00971833
0.00963853
0.00947743
0.00947486
0.00945957
0.00949291
0.00952083
0.00956183
0.00959491
0.00969563
0.00972287
0.00968344
0.00949738
0.00953195
0.00953783
0.00951042
0.00950596
0.00952737
0.00959116
0.00969554
0.00971961
0.00969042
0.0095699
0.00957345
0.00959036
0.00956023
0.00951212
0.00952386
0.00961783
0.00970272
0.00970936
0.00996022
0.00992815
0.00992064
0.00991063
0.00993414
0.0100138
0.0100964
0.0101346
0.0101454
0.0101475
0.00995128
0.00992969
0.00992396
0.0099348
0.00999052
0.0100751
0.0101239
0.0101369
0.0101326
0.0101566
0.00994714
0.00993294
0.00993045
0.00996151
0.0100306
0.0100993
0.0101336
0.0101422
0.0101551
0.0101572
0.00994825
0.00994012
0.00994844
0.00998673
0.010051
0.0101034
0.0101327
0.0101423
0.0101489
0.0101442
0.00995197
0.00994718
0.00995997
0.00999746
0.0100491
0.0100961
0.0101161
0.0101321
0.0101298
0.0101237
0.00995707
0.00995585
0.00997618
0.0100058
0.0100421
0.0100772
0.0100981
0.0101033
0.010103
0.0101133
0.00996762
0.00996978
0.00998789
0.0100118
0.0100346
0.0100497
0.0100702
0.0100775
0.0100967
0.0101258
0.00997583
0.00997892
0.0100136
0.0101033
0.0100937
0.0100775
0.0100801
0.0100855
0.0101329
0.0101439
0.00998574
0.0100425
0.0101269
0.0101412
0.0101461
0.0101249
0.0101172
0.0101222
0.0101346
0.0101396
0.0100064
0.0100713
0.0101355
0.0101316
0.0101401
0.0101265
0.010129
0.0101579
0.0101779
0.0101983
0.0098236
0.00980562
0.00980225
0.00980179
0.00981076
0.00982862
0.00986809
0.009937
0.0100271
0.0100787
0.0098381
0.00983121
0.00983913
0.00985019
0.00987533
0.00992195
0.00999586
0.0100637
0.0101121
0.0101315
0.00987351
0.00987888
0.00990149
0.00993338
0.00998844
0.0100532
0.0101058
0.0101454
0.010162
0.0101639
0.00993545
0.00995534
0.0100061
0.0100528
0.0101041
0.0101464
0.0101801
0.0101953
0.0101991
0.010182
0.0100393
0.0100702
0.010123
0.0101506
0.010192
0.0102118
0.0102271
0.0102319
0.0102289
0.0102148
0.0101283
0.0101587
0.0101956
0.0102149
0.0102416
0.010252
0.0102638
0.0102628
0.0102539
0.0102411
0.0101951
0.0102253
0.010252
0.0102712
0.0102843
0.0102899
0.0102895
0.0102829
0.0102719
0.0102646
0.010243
0.0102612
0.0102786
0.0102857
0.0102886
0.0103046
0.0103017
0.0102954
0.0102888
0.0102833
0.0102548
0.0102702
0.010276
0.0102725
0.0102747
0.0103013
0.0103084
0.0103023
0.0102959
0.0102961
0.0102396
0.0102667
0.0102712
0.0102593
0.0102673
0.0102999
0.0103101
0.010304
0.0103031
0.0103418
0.010181
0.010223
0.0102335
0.0102371
0.0102358
0.0102205
0.0101993
0.0101827
0.010167
0.0101409
0.0101799
0.0102239
0.0102447
0.0102494
0.0102449
0.0102274
0.0102128
0.0101955
0.0101696
0.0101261
0.0101671
0.010216
0.0102423
0.0102549
0.0102513
0.0102388
0.0102239
0.010203
0.0101726
0.0101237
0.0101263
0.0101969
0.0102226
0.0102425
0.0102521
0.0102474
0.0102334
0.0102106
0.0101864
0.0101615
0.0100446
0.0101272
0.0101859
0.0102203
0.0102398
0.0102488
0.0102441
0.010225
0.0102121
0.0102156
0.00999888
0.0100542
0.0101065
0.0101598
0.0102092
0.0102428
0.0102583
0.010252
0.0102526
0.0102745
0.00998592
0.0100225
0.0100563
0.0101037
0.0101697
0.0102265
0.0102692
0.0102848
0.0102967
0.010318
0.00999822
0.0100217
0.0100475
0.0100778
0.0101288
0.0102059
0.0102661
0.010307
0.0103253
0.0103374
0.0100221
0.0100336
0.010053
0.0100761
0.0101094
0.0101721
0.0102519
0.0103105
0.0103357
0.0103441
0.0100844
0.0100742
0.0100765
0.0100876
0.0101094
0.010151
0.0102312
0.010301
0.0103375
0.0103463
0.00942441
0.00940241
0.00935848
0.00928345
0.00923062
0.00917073
0.00906231
0.00888304
0.00872603
0.00881326
0.0093992
0.00939538
0.00937734
0.00933269
0.00926548
0.00919454
0.00910571
0.00896261
0.00878379
0.00882643
0.00928973
0.00935572
0.00936688
0.00934794
0.00930572
0.0092482
0.00916609
0.00902652
0.00883263
0.00883431
0.00913843
0.00924166
0.00931897
0.00933
0.00929875
0.00924131
0.00916265
0.00902012
0.00883685
0.00882727
0.00901633
0.00911893
0.00922224
0.00926317
0.00924218
0.00918298
0.00907693
0.00894293
0.00881892
0.0088242
0.00875061
0.00887939
0.00900432
0.00907541
0.0090704
0.0090079
0.00890193
0.00881248
0.00878836
0.00882002
0.00846161
0.00861778
0.00871747
0.00875998
0.00876431
0.00873932
0.00872
0.0087298
0.0087679
0.00883554
0.0085004
0.00858221
0.00862372
0.00865768
0.00868108
0.0087043
0.00872696
0.00876208
0.00881463
0.00888497
0.00877527
0.00877497
0.00875813
0.00876361
0.00876814
0.00878913
0.00881929
0.00885545
0.00890341
0.00896543
0.00904173
0.0089777
0.00892911
0.00890634
0.00890278
0.00891647
0.00894407
0.00898067
0.00903335
0.00911018
0.00953069
0.00950538
0.00947906
0.00944008
0.00939661
0.00936552
0.0093217
0.00925041
0.00913329
0.00899345
0.00951835
0.00950829
0.00948517
0.0094611
0.00941771
0.00937825
0.00933313
0.00927116
0.00916902
0.00904203
0.00944401
0.00947767
0.00947998
0.00946146
0.00943646
0.00940429
0.00936313
0.00930751
0.00921711
0.00909749
0.00934374
0.00939101
0.00943606
0.00944809
0.00943477
0.0094073
0.00936885
0.00931524
0.0092371
0.00911176
0.00927145
0.00930973
0.00936266
0.00939804
0.00940895
0.00939218
0.00934755
0.00928937
0.00920455
0.00909645
0.00912904
0.00916198
0.00922103
0.00927701
0.00931671
0.00931997
0.00928437
0.00922588
0.00914591
0.00907059
0.0088311
0.00888298
0.00897048
0.00905086
0.00910997
0.00913146
0.00911904
0.00908498
0.00905036
0.00903308
0.00874266
0.00879756
0.00886301
0.00891958
0.00895083
0.00896264
0.0089671
0.00897741
0.00899213
0.00902023
0.0088574
0.00886996
0.0088818
0.0089046
0.00892418
0.00893847
0.00895736
0.00898211
0.00901519
0.00905191
0.00911971
0.00907397
0.00902143
0.00900311
0.00900132
0.00901057
0.00902996
0.00905445
0.00909317
0.0091308
0.00958018
0.00955854
0.00953073
0.00950489
0.00947425
0.00944817
0.00942799
0.00939882
0.00935924
0.00926478
0.00958493
0.00957762
0.00955525
0.00952716
0.00950219
0.00946855
0.00944444
0.00941256
0.00937084
0.00929818
0.00954515
0.00955713
0.00955223
0.00953174
0.00950567
0.0094829
0.00946044
0.00942928
0.00938685
0.00933416
0.00946449
0.00948937
0.00951297
0.00951678
0.00950312
0.00948225
0.00946172
0.00943566
0.009404
0.00935176
0.00942263
0.00943406
0.00945493
0.00947141
0.00947514
0.00946903
0.00945372
0.00942898
0.00939386
0.00934303
0.00934652
0.00934441
0.00935606
0.00937456
0.00939189
0.0094075
0.00941363
0.00940096
0.00936617
0.00932376
0.00913622
0.00913106
0.00914865
0.00918325
0.00923181
0.0092754
0.00930348
0.00931176
0.00930095
0.00928469
0.00902919
0.00903323
0.00905468
0.00909404
0.00913854
0.00917313
0.00919567
0.0092138
0.00922263
0.00922734
0.00905537
0.00906175
0.00907484
0.00909752
0.0091247
0.00915063
0.00916955
0.00918613
0.00920236
0.009215
0.00920152
0.00921584
0.00920529
0.00919475
0.00918713
0.00918779
0.00919674
0.00921153
0.0092346
0.00923834
0.00958415
0.00956537
0.00953087
0.00950969
0.00948857
0.00947273
0.00946524
0.00945596
0.00944719
0.00940807
0.00961696
0.00961134
0.00958727