/*--------------------------------*- C++ -*----------------------------------*\
  =========                 |
  \\      /  F ield         | OpenFOAM: The Open Source CFD Toolbox
   \\    /   O peration     | Website:  https://openfoam.org
    \\  /    A nd           | Version:  9
     \\/     M anipulation  |
\*---------------------------------------------------------------------------*/
FoamFile
{
    format      ascii;
    class       volScalarField;
    location    "80";
    object      f1.gas;
}
// * * * * * * * * * * * * * * * * * * * * * * * * * * * * * * * * * * * * * //

dimensions      [0 0 0 0 0 0 0];

internalField   nonuniform List<scalar> 
137980
(
0.000281023
0.00028522
0.000334943
0.00043505
0.000562589
0.000631328
0.000665559
0.00070574
0.000825361
0.00110065
0.00026477
0.000268978
0.00032629
0.000445017
0.00059148
0.000683772
0.000726726
0.000768466
0.000879009
0.00102917
0.000255218
0.000259175
0.000318017
0.000437377
0.000590107
0.000726071
0.00080646
0.000849327
0.000905528
0.00102031
0.000241142
0.000245637
0.000301983
0.000414862
0.000562445
0.000718834
0.000858987
0.000940919
0.000980118
0.00103492
0.00023166
0.000234205
0.000278872
0.000377248
0.000508441
0.000671036
0.000846045
0.000971475
0.00105594
0.00109002
0.000227845
0.000226486
0.000251652
0.000329062
0.000436237
0.000571207
0.000767105
0.000936913
0.0010493
0.00110263
0.000235447
0.000227513
0.000233638
0.000277665
0.000361918
0.000461913
0.00060226
0.000788247
0.00095732
0.00104726
0.000260118
0.000237981
0.000231374
0.000245437
0.00029695
0.000371219
0.000460116
0.000573134
0.000684174
0.000758772
0.000289086
0.00026776
0.000241759
0.00023864
0.000261045
0.000312691
0.000378371
0.000437447
0.000484767
0.000495726
0.00033539
0.000298204
0.000261367
0.000245007
0.00024632
0.000280699
0.000322698
0.000375657
0.000381193
0.000459443
0.000298488
0.000312963
0.00037745
0.000497759
0.000627233
0.000714853
0.000836695
0.000901208
0.000834553
0.00153765
0.000284882
0.000303052
0.000383145
0.000513861
0.000665007
0.000797593
0.000962487
0.00105899
0.0010192
0.0016247
0.000275374
0.000296301
0.000380899
0.000517789
0.000682264
0.000876344
0.00108126
0.00127828
0.00131033
0.00179868
0.000261192
0.000283509
0.000361254
0.000490634
0.000667961
0.000911281
0.00120458
0.00153391
0.00163803
0.00188674
0.000250108
0.000266251
0.000330279
0.000445548
0.000616944
0.00087724
0.00119873
0.00161775
0.00185901
0.00195005
0.000245899
0.000252145
0.000289882
0.000385202
0.000531898
0.000768887
0.00112448
0.00154655
0.0018608
0.00195665
0.000255432
0.000250119
0.000260008
0.000317173
0.000435359
0.000612221
0.000907765
0.00134502
0.00174628
0.00191358
0.000297406
0.000264664
0.000256191
0.000268981
0.000344487
0.000466203
0.000648101
0.000939123
0.00135127
0.0016847
0.000374711
0.000306662
0.000269216
0.000260259
0.000287111
0.000368154
0.000481021
0.000620605
0.000818291
0.00102748
0.00039521
0.000346964
0.000296958
0.000267528
0.000263871
0.000312393
0.000385687
0.000483879
0.000580535
0.000607386
0.0003067
0.000329344
0.000403053
0.00053565
0.000701249
0.00090354
0.00111581
0.00103361
0.00087906
0.00194742
0.000296227
0.000326733
0.000422823
0.000580716
0.000797142
0.00109349
0.00131491
0.00121955
0.00104123
0.00203237
0.000288326
0.000326399
0.000429907
0.000603053
0.000874096
0.00129268
0.00157359
0.00150455
0.0012261
0.00214433
0.000276046
0.000314924
0.000417317
0.00059832
0.000906926
0.00144784
0.00185653
0.00187076
0.00160938
0.0022537
0.000269043
0.000295558
0.000384969
0.000557048
0.000878978
0.0015087
0.0021035
0.00217849
0.00195029
0.00244849
0.000271291
0.000279398
0.000335738
0.000484726
0.000772437
0.00139411
0.00232168
0.00257693
0.0022697
0.00258977
0.000299134
0.000280512
0.000297248
0.000395579
0.000626443
0.00111446
0.00221449
0.0028994
0.00294527
0.00278835
0.000403011
0.000305489
0.000286645
0.000322692
0.000475726
0.000813669
0.00162897
0.0028246
0.00326116
0.0032979
0.000594923
0.000403948
0.000311646
0.000296345
0.000366831
0.000581177
0.00104898
0.00219357
0.00305479
0.00333348
0.000554213
0.000450836
0.000377951
0.000295173
0.000313357
0.000444556
0.000727564
0.00120608
0.00179424
0.0019575
0.000319557
0.000357707
0.000456564
0.000628681
0.000938413
0.00156173
0.00157165
0.00118519
0.00118832
0.00383106
0.000318001
0.000377177
0.000517436
0.000780059
0.00137353
0.00185625
0.00171623
0.00143044
0.00144359
0.00426385
0.000316898
0.000387853
0.000555324
0.000901853
0.00168688
0.00217226
0.00201796
0.00168466
0.00169492
0.00464746
0.00031081
0.000386909
0.000567113
0.000959273
0.00187482
0.002458
0.00237737
0.00195045
0.00185986
0.00466294
0.000307092
0.000367276
0.000537636
0.000938164
0.00190611
0.00272389
0.00274781
0.00221263
0.00201975
0.00453394
0.000307777
0.000343316
0.000469802
0.000827738
0.00173871
0.00289721
0.00309002
0.0024646
0.00221067
0.00411976
0.000335436
0.000331991
0.000402012
0.000667234
0.00140874
0.00288839
0.00340965
0.00295489
0.00264032
0.00352142
0.000445787
0.000352746
0.000362674
0.000516151
0.00106161
0.00255014
0.00350072
0.00361746
0.00305719
0.00358735
0.000654992
0.000437419
0.000371023
0.000420719
0.000766126
0.00180739
0.00339127
0.00391118
0.00389747
0.00395858
0.00063494
0.000501689
0.000411873
0.00037813
0.000580718
0.00134738
0.00286822
0.0036239
0.00393899
0.0035817
0.00037105
0.000471341
0.000735555
0.00125989
0.00169441
0.00169179
0.00129343
0.00117766
0.00351428
0.00744828
0.000413174
0.000626428
0.00125494
0.00187848
0.00202089
0.00174557
0.00150285
0.00179926
0.00556006
0.00730725
0.000448664
0.000750974
0.00160417
0.00224065
0.00232068
0.00201608
0.00197539
0.0030837
0.00603873
0.00617969
0.000466562
0.000806589
0.00175967
0.00258832
0.00272925
0.0025602
0.00261997
0.00416451
0.00611848
0.00555595
0.000468592
0.000778256
0.00164291
0.0027766
0.00306704
0.00306516
0.00313882
0.00469526
0.00625394
0.00585591
0.000448805
0.000685943
0.00135131
0.00273495
0.00333285
0.00343387
0.00349493
0.00463183
0.00624459
0.00649245
0.000440436
0.00057785
0.00106252
0.00229386
0.0034285
0.00376143
0.00374534
0.00441013
0.00610716
0.00651995
0.00049012
0.000507611
0.000809186
0.00168202
0.00329601
0.00400007
0.00417288
0.0044288
0.00549831
0.00626734
0.000624448
0.000527521
0.00063422
0.00118777
0.00265058
0.00398747
0.00454015
0.00456182
0.00533875
0.0061123
0.000646635
0.000560972
0.000564723
0.000882036
0.00193743
0.00370572
0.00453746
0.0050092
0.00538829
0.00616686
0.000906796
0.000929005
0.000936375
0.00108639
0.00132489
0.00116629
0.00113008
0.00258828
0.00780514
0.00788845
0.00138888
0.00155458
0.0016397
0.00164378
0.00156837
0.00154673
0.00235232
0.00575021
0.00669333
0.0032184
0.00178989
0.00195175
0.00201932
0.00201123
0.00202001
0.00264273
0.00478537
0.00550481
0.0038197
0.00177646
0.00213913
0.00242716
0.00255325
0.00262232
0.00300902
0.00431395
0.00486941
0.00468072
0.00230952
0.00162331
0.00234279
0.00283219
0.00311025
0.00339959
0.00425201
0.00470789
0.0047722
0.00364881
0.00201692
0.00171274
0.00228855
0.00319416
0.00374651
0.0043638
0.00475004
0.00480873
0.00448956
0.00301737
0.00213611
0.00207433
0.00199605
0.00324586
0.00430786
0.00489823
0.00501328
0.00495965
0.00432218
0.00303921
0.00249124
0.00311155
0.00159722
0.00304857
0.0042694
0.0050932
0.00530761
0.00508348
0.0043817
0.00322018
0.00297361
0.00441645
0.00132171
0.002413
0.00404148
0.00502379
0.00542905
0.00535038
0.00458002
0.00358809
0.00332421
0.0044305
0.00103144
0.00171815
0.0034406
0.00475017
0.00541803
0.00567274
0.00510343
0.00433173
0.004032
0.00468056
0.000818317
0.000951208
0.000969186
0.0011735
0.00155558
0.00308108
0.00602503
0.00658214
0.00437383
0.00359407
0.00139993
0.00139329
0.00143622
0.00184425
0.00338287
0.00520391
0.00561756
0.00391782
0.00202765
0.00157498
0.00178635
0.00177287
0.00205069
0.00322747
0.00463805
0.0049978
0.00423857
0.00203813
0.00144024
0.00128529
0.00230425
0.00243543
0.00322458
0.00425786
0.00459496
0.0044522
0.00252137
0.00162562
0.00142977
0.00140112
0.00306514
0.003453
0.00422654
0.00448475
0.00448217
0.00350494
0.00199282
0.00159873
0.00153393
0.00180709
0.00389596
0.00429613
0.00462966
0.00464889
0.00426503
0.00287697
0.00192366
0.0017186
0.00205346
0.00304772
0.00443053
0.0047734
0.0048941
0.00477051
0.00408395
0.00262533
0.00206473
0.00206852
0.00316587
0.00435781
0.00462046
0.00500505
0.00506421
0.00489335
0.0041542
0.00274138
0.00234505
0.00239374
0.00361093
0.00477922
0.00448931
0.00506204
0.00520277
0.00505012
0.00441613
0.00305632
0.00265916
0.00255259
0.00346762
0.00465967
0.00439086
0.00504282
0.00527086
0.00530912
0.00488668
0.00371285
0.00319528
0.00292432
0.0034444
0.00450295
0.00386087
0.00395851
0.00356522
0.00340221
0.00297964
0.00260413
0.00233886
0.00212757
0.0020404
0.00202772
0.0031386
0.00308487
0.00270197
0.00255039
0.00221161
0.00192341
0.00165411
0.00151192
0.00143325
0.00139316
0.00278008
0.00264146
0.00238729
0.00227763
0.00195283
0.00173748
0.00161014
0.00154577
0.00153361
0.00153626
0.00278409
0.00257454
0.00242497
0.00220945
0.00190842
0.00179221
0.00175623
0.00193612
0.00218364
0.00228702
0.00289674
0.00269373
0.00254116
0.00222811
0.00198369
0.00193959
0.00219345
0.00271662
0.00301804
0.00319333
0.00321699
0.00294066
0.00272944
0.00233574
0.0021675
0.00214756
0.00249678
0.00302077
0.00348068
0.00368898
0.00370923
0.00333242
0.00299089
0.00251728
0.00224922
0.00217938
0.00241255
0.00297837
0.00370387
0.00395624
0.00415164
0.00380134
0.0032309
0.00278771
0.00236044
0.00219415
0.0022371
0.00255937
0.00345941
0.00405077
0.00442163
0.00424402
0.00371238
0.00324208
0.00263269
0.00228478
0.00224916
0.00234918
0.00282564
0.00412413
0.00466165
0.00459819
0.00415584
0.00372457
0.00343497
0.00280328
0.00251211
0.0025958
0.0028852
0.00410813
0.00279978
0.00290906
0.00262582
0.00252118
0.00236275
0.00228863
0.00218678
0.00213795
0.00207669
0.00204976
0.00248104
0.00243172
0.00222494
0.00215228
0.00210412
0.00209305
0.00209311
0.00205998
0.00199217
0.00190637
0.0022501
0.00215637
0.00206875
0.00205012
0.00209625
0.00223557
0.00234183
0.00240729
0.00243368
0.0024403
0.0021595
0.00198781
0.00192207
0.00191901
0.00202598
0.00218773
0.00236979
0.00253756
0.00259631
0.00261388
0.00222968
0.00191202
0.00180742
0.00178728
0.00188104
0.00207903
0.00241689
0.0027098
0.00281524
0.00275142
0.00251653
0.00198101
0.00180097
0.00170767
0.00169867
0.00186769
0.0022602
0.00274653
0.00292564
0.00280414
0.00311885
0.00225351
0.00189641
0.00174113
0.00167246
0.00166409
0.00188649
0.00234627
0.00293135
0.00297188
0.00377282
0.0027926
0.00216375
0.00194157
0.00187001
0.00178543
0.00180916
0.00201364
0.00246328
0.00311409
0.00415267
0.00329465
0.00277603
0.00246848
0.00250874
0.0023988
0.00217895
0.0021798
0.00234272
0.00306509
0.00441779
0.00390908
0.00339392
0.00340414
0.00356453
0.00316503
0.00285294
0.00287075
0.00293495
0.00319264
0.00303585
0.00316426
0.00317188
0.00311572
0.00305067
0.00295246
0.00288381
0.00282203
0.00279692
0.00279396
0.00250892
0.00259835
0.00262184
0.00262807
0.00260402
0.00257242
0.00251056
0.00244314
0.00235314
0.00228474
0.00226006
0.00225704
0.0022783
0.00232755
0.00237427
0.00239526
0.00240133
0.00238018
0.00232781
0.00226472
0.00197847
0.00190458
0.00189866
0.00194225
0.00207454
0.00220387
0.0022748
0.00232363
0.00233574
0.00225748
0.00197351
0.00167662
0.00159609
0.00157714
0.00163369
0.00184723
0.00207948
0.0022816
0.00237431
0.00240249
0.00213361
0.00177039
0.00150087
0.00135553
0.00132185
0.00138357
0.00157667
0.00188535
0.00229663
0.00256681
0.00288838
0.00209969
0.00162975
0.00140945
0.0012917
0.00129662
0.00139035
0.00166263
0.00202702
0.00263629
0.00348374
0.00277644
0.00195198
0.00158539
0.00147693
0.00151333
0.00159009
0.00173577
0.00198092
0.0026414
0.00368089
0.00326083
0.00251596
0.00196493
0.00202393
0.00218779
0.0021842
0.00223327
0.00236709
0.00277358
0.00377723
0.00330219
0.00266813
0.00260494
0.00299044
0.00303437
0.00286734
0.00283635
0.00278773
0.00291384
0.00437127
0.00499006
0.00518366
0.00527623
0.00528442
0.00507014
0.00479889
0.00446148
0.00425434
0.00400321
0.00341223
0.00356469
0.0035878
0.00355527
0.00346985
0.00334015
0.00310465
0.00288482
0.00273956
0.00255028
0.00309399
0.00315747
0.00315935
0.00306014
0.00296173
0.00283791
0.0026936
0.00250878
0.00239922
0.0021991
0.00264004
0.00266414
0.00267847
0.00269064
0.00267673
0.00260276
0.00250682
0.00240718
0.00226893
0.0021545
0.00226006
0.00219513
0.00219485
0.00222686
0.00227709
0.00229805
0.00228162
0.0021939
0.00211943
0.00207461
0.00209574
0.00191113
0.00176573
0.001714
0.00170231
0.0017441
0.00183173
0.0019113
0.00185607
0.00187723
0.00240121
0.00205779
0.00172023
0.00152075
0.0014056
0.0013777
0.00140762
0.0015027
0.00152387
0.0016603
0.00314007
0.00243384
0.00189009
0.00159394
0.00144202
0.00137473
0.00136489
0.0013792
0.00142972
0.0015991
0.00357904
0.00322242
0.00235497
0.00178697
0.00159859
0.0016071
0.00169278
0.00178895
0.00187237
0.00209918
0.00355476
0.0033938
0.00260595
0.00200652
0.00202425
0.00220285
0.00229309
0.00231144
0.0022946
0.0024039
0.00225448
0.00206303
0.00158263
0.00136661
0.00127304
0.00124565
0.0013003
0.00165942
0.00296334
0.00612212
0.003328
0.00250558
0.0020602
0.0017729
0.00169571
0.00186843
0.00263069
0.00407412
0.00476309
0.0049496
0.00398245
0.00377907
0.00328297
0.00307067
0.00305058
0.00358625
0.00392439
0.0040535
0.003862
0.0025872
0.0041112
0.0041662
0.00407593
0.0039085
0.00385245
0.00385352
0.00380927
0.0034085
0.00239391
0.00198797
0.00383007
0.00415124
0.00414734
0.00402571
0.00388088
0.00371503
0.00329512
0.00244286
0.00202326
0.00182266
0.00324273
0.00373642
0.00390823
0.00389352
0.00374166
0.003422
0.00281704
0.00220742
0.00193931
0.00180759
0.00308896
0.0031525
0.00352804
0.00356494
0.00342875
0.00304286
0.00245074
0.00197036
0.00180515
0.00175007
0.00335843
0.00281681
0.00286684
0.00315565
0.0032029
0.00296319
0.00248428
0.00196197
0.00171985
0.0016827
0.00395929
0.00299912
0.00261365
0.00256005
0.00266058
0.00271453
0.00255226
0.00211982
0.00182847
0.00183659
0.00374287
0.00338935
0.00256273
0.00227496
0.0023321
0.00248176
0.00253174
0.00243051
0.00216069
0.001933
0.00658103
0.00640959
0.00557009
0.00493117
0.00472993
0.00511593
0.00450615
0.00298586
0.00191137
0.00144801
0.00522519
0.00484082
0.00444903
0.00411657
0.003981
0.00407594
0.00456542
0.00437039
0.00356665
0.00237774
0.00470099
0.00445372
0.00421107
0.00396487
0.00389268
0.00396967
0.00421598
0.00454381
0.00415591
0.00285427
0.00416725
0.00415395
0.00404323
0.0038695
0.0038543
0.00391826
0.00415209
0.00442515
0.00394842
0.00267149
0.00402539
0.00403273
0.00384773
0.00367914
0.00371865
0.00382668
0.00401645
0.00406206
0.00340826
0.00241263
0.00397669
0.00386762
0.0035839
0.00351009
0.00358711
0.0036869
0.00374591
0.00362809
0.00294183
0.00236489
0.00393818
0.00367605
0.00343901
0.00333294
0.00341215
0.00348496
0.00352637
0.0033977
0.00291497
0.00237192
0.00378808
0.00358048
0.00333857
0.0030919
0.00314785
0.00324617
0.00337965
0.00333814
0.00296367
0.00241168
0.00347407
0.00353912
0.00328855
0.00297618
0.00288544
0.00296047
0.00312529
0.00319268
0.00289747
0.00254316
0.00301981
0.00347118
0.00320366
0.00291016
0.0027714
0.00273337
0.00289351
0.00310699
0.00291263
0.00245824
0.00793564
0.00701206
0.00639813
0.00568031
0.00479683
0.00433183
0.00415887
0.00415524
0.00419712
0.00434055
0.00568552
0.00527437
0.00503462
0.00467144
0.00420295
0.00387476
0.00373881
0.00374248
0.00377028
0.00374194
0.00484136
0.00476126
0.00460403
0.00426683
0.00381573
0.00357406
0.00341173
0.00342728
0.00351122
0.00348398
0.0045704
0.0045337
0.00431815
0.003791
0.00340311
0.00319872
0.00316632
0.00321902
0.00332268
0.0032419
0.00446755
0.00438259
0.00393691
0.00334308
0.00307565
0.00301586
0.00305303
0.00314794
0.00322692
0.00313025
0.0043584
0.00418394
0.00354274
0.0031039
0.00292943
0.00290938
0.00297914
0.00308887
0.00302165
0.00298009
0.00419706
0.00399334
0.0033503
0.0029524
0.00281844
0.00283812
0.00297206
0.00306598
0.00294551
0.00284097
0.00398262
0.003885
0.00325741
0.0028841
0.00275917
0.00279156
0.00298983
0.00307703
0.00295674
0.00283105
0.00379244
0.00378274
0.00322037
0.00286869
0.0027482
0.00278455
0.00299857
0.00310756
0.00307388
0.00301866
0.0035972
0.00365724
0.00318979
0.00291344
0.00284391
0.00296169
0.00309536
0.0031286
0.00304508
0.00278716
0.00493637
0.00460604
0.00408914
0.00376402
0.00357735
0.00340799
0.00326247
0.00332145
0.00362628
0.00361121
0.00495855
0.00449898
0.00387432
0.00344509
0.00318348
0.00301775
0.00293769
0.00297504
0.00314935
0.00323794
0.00460073
0.00407776
0.00346437
0.00303299
0.00272028
0.00248289
0.00246348
0.00253423
0.00271121
0.00280604
0.00446309
0.0038841
0.00326359
0.0027145
0.00233643
0.00218001
0.00218419
0.00225265
0.00242702
0.00260822
0.00423537
0.00352082
0.0029509
0.00244231
0.00218309
0.00208117
0.00208778
0.00216049
0.00232571
0.00256215
0.00405931
0.00334616
0.00280565
0.00234867
0.0021376
0.00205817
0.00206598
0.00213944
0.00232981
0.00252762
0.00382097
0.00315247
0.00271219
0.00232318
0.00213926
0.0020923
0.00210325
0.002181
0.00236066
0.00253633
0.00368974
0.00306302
0.00268238
0.00237046
0.00225915
0.00223664
0.00226278
0.00230996
0.00238839
0.0025651
0.00358487
0.00298121
0.00268028
0.00248666
0.00243
0.00243453
0.00246646
0.00251454
0.00261704
0.00269263
0.003539
0.00294106
0.00267748
0.00255029
0.00252255
0.00253184
0.00252482
0.00251182
0.00245829
0.00230273
0.00362906
0.00273766
0.00239515
0.00220693
0.00212876
0.00206571
0.00206692
0.00222561
0.00267579
0.00320367
0.00382949
0.00281695
0.00234361
0.00209647
0.00196902
0.00187506
0.00186275
0.00191356
0.00216267
0.00223419
0.0036791
0.00264767
0.00218626
0.00196299
0.00185797
0.0017731
0.00172862
0.0017478
0.00185873
0.00191738
0.00358613
0.00257503
0.00212233
0.00190505
0.00181046
0.00172993
0.00167168
0.00166217
0.00169231
0.00176199
0.00338279
0.00243483
0.0020486
0.00187813
0.00179747
0.00172181
0.00166221
0.00163476
0.00164731
0.00171789
0.00328395
0.00237078
0.00201691
0.00187172
0.00181195
0.00175434
0.0016884
0.00164417
0.00164345
0.00174089
0.00312591
0.00228549
0.0020001
0.00189113
0.00187336
0.00183163
0.00177051
0.0017085
0.00167891
0.00179222
0.00305201
0.00224825
0.00199559
0.00193937
0.00194042
0.00192154
0.00187936
0.00183031
0.00176712
0.0018175
0.00301499
0.0022209
0.00199576
0.00197596
0.00200852
0.00200163
0.00195013
0.00192427
0.00196962
0.00198281
0.00300583
0.00220485
0.00200152
0.0020138
0.00205234
0.00203786
0.00196899
0.00194264
0.00188835
0.0017545
0.00449304
0.00432426
0.00416019
0.00376463
0.00346684
0.0032655
0.00317438
0.00305829
0.00290582
0.00236099
0.00455733
0.00436015
0.00424333
0.0037703
0.00341521
0.00322721
0.00300304
0.00287847
0.00259204
0.0022886
0.00450983
0.00434244
0.00427891
0.00383935
0.00342536
0.00321124
0.00292746
0.00265582
0.00230937
0.0019122
0.00435699
0.00421676
0.00430047
0.00400765
0.00356563
0.00325919
0.00285518
0.00244693
0.00205776
0.00174986
0.00424367
0.00399014
0.00429908
0.00409276
0.00366668
0.00334034
0.00282649
0.00236555
0.00197023
0.00169539
0.00419734
0.00368259
0.0042287
0.00416167
0.00375988
0.00344165
0.00290322
0.00235421
0.00195494
0.00169427
0.00423859
0.00325276
0.0040486
0.0041829
0.00386068
0.00361145
0.00313818
0.0025445
0.00213151
0.00179463
0.0046783
0.00281285
0.00370794
0.00416555
0.0039025
0.00373844
0.00340154
0.00281872
0.00236668
0.00207547
0.00502996
0.00259648
0.00301264
0.0039914
0.00391227
0.00379151
0.00368105
0.00332854
0.002782
0.00248546
0.00517714
0.0024573
0.00243089
0.0036575
0.00376159
0.00376655
0.00377542
0.00370187
0.00361947
0.00340684
0.00644094
0.00397312
0.00336921
0.00322909
0.00314678
0.00304976
0.0028705
0.00258491
0.00258413
0.00290733
0.0062183
0.00414618
0.00337661
0.00319777
0.00310716
0.00301797
0.00281307
0.00250406
0.00255186
0.00265883
0.00650874
0.00412077
0.00319007
0.00311701
0.00310114
0.00301672
0.00279933
0.00246292
0.00239067
0.00241332
0.00661227
0.00407048
0.00308927
0.0030768
0.00311431
0.0030468
0.00279739
0.00241203
0.0022219
0.0023199
0.0066154
0.00382797
0.00289716
0.00298035
0.00314856
0.00312413
0.00282807
0.00238799
0.00208727
0.00208645
0.00623245
0.00354684
0.00275685
0.00292486
0.00320489
0.0032336
0.00290714
0.00238165
0.00201851
0.00184693
0.00603566
0.00320031
0.00257895
0.00282536
0.00324149
0.00329702
0.0030154
0.00242581
0.00202451
0.00185643
0.00574985
0.00301054
0.0024392
0.00276352
0.00324723
0.00331496
0.00308246
0.00253895
0.00218695
0.00204973
0.00565108
0.0029217
0.00228924
0.00266634
0.00321755
0.00330276
0.0030973
0.0025945
0.00230848
0.00214092
0.00564492
0.00289001
0.00221674
0.00259895
0.00309467
0.00320024
0.00308624
0.00264895
0.00235791
0.00219252
0.00465399
0.00347671
0.00309175
0.00293755
0.00286546
0.00284329
0.003036
0.00355728
0.00378147
0.00375734
0.00420761
0.00361348
0.00335667
0.00323621
0.00319011
0.0031934
0.00340624
0.0037107
0.00385373
0.00394363
0.00444868
0.00379869
0.00358553
0.00349989
0.00347288
0.00354564
0.00372348
0.0038839
0.00394983
0.00394683
0.00486847
0.00402466
0.0037761
0.00369002
0.00366862
0.00376564
0.00384607
0.00388301
0.00385685
0.00340921
0.00538295
0.00423838
0.00392653
0.00381921
0.00378824
0.00382505
0.0038396
0.00380868
0.00351043
0.00303834
0.00577166
0.00446681
0.00406919
0.00391716
0.0038504
0.00382002
0.00377219
0.00359879
0.00319265
0.0029854
0.00610665
0.00467598
0.00420239
0.00402174
0.00387986
0.00379721
0.00364881
0.00330441
0.00301338
0.00290992
0.0061486
0.00513886
0.00432079
0.00408391
0.00392735
0.00374592
0.00350779
0.00317726
0.00291442
0.00271413
0.0058824
0.00550681
0.00456772
0.00417028
0.00402776
0.00376461
0.00351105
0.00310866
0.00280481
0.00272712
0.00549697
0.00557928
0.00485804
0.00425595
0.00410717
0.00386324
0.00359898
0.00315563
0.002824
0.00296689
0.00203008
0.00198857
0.00170813
0.00156554
0.00141897
0.00141544
0.00157056
0.00171418
0.0017422
0.00175392
0.00213296
0.00201771
0.00172202
0.00157158
0.00148353
0.00148866
0.00167911
0.00176765
0.00178482
0.00187387
0.00230229
0.0020527
0.00178508
0.00165318
0.00161199
0.00163314
0.00177354
0.00182434
0.00188699
0.00212658
0.00245675
0.00214994
0.00191151
0.00179937
0.00175353
0.0017501
0.00183566
0.00189473
0.0020627
0.00216507
0.00255513
0.00227218
0.00205546
0.00194404
0.00189254
0.00188479
0.00196627
0.00202928
0.00213683
0.00212425
0.002681
0.00232935
0.00216604
0.00209199
0.00204685
0.00202366
0.00203112
0.00211712
0.0021535
0.00203211
0.00275703
0.00243218
0.00228952
0.00222658
0.00216904
0.0021323
0.00213615
0.00215312
0.00216331
0.00200692
0.00286491
0.00253264
0.00237979
0.0023398
0.00228354
0.00226173
0.00224549
0.00222782
0.0021816
0.00201993
0.00303781
0.00281936
0.00256318
0.00246753
0.00240717
0.00234357
0.00232571
0.00228888
0.00222344
0.00204198
0.00312129
0.00284834
0.00265552
0.00259124
0.00255366
0.00248561
0.00245525
0.00238895
0.00228055
0.0021158
0.000378466
0.000384186
0.00041183
0.000536437
0.000719483
0.000752538
0.000931276
0.000851989
0.000429367
0.000351246
0.000402633
0.000419901
0.000473063
0.000592754
0.000735396
0.000816843
0.00100186
0.000928738
0.000568249
0.000381915
0.000514752
0.000511724
0.000553856
0.000701651
0.000784881
0.000841706
0.001001
0.000934215
0.000610136
0.000392834
0.000636524
0.000638167
0.00075161
0.000794798
0.000801923
0.0008343
0.000911385
0.000833215
0.000651784
0.000442645
0.000605714
0.000783085
0.000794411
0.000784672
0.000776355
0.000775433
0.000748545
0.000679661
0.000667815
0.000524872
0.000625441
0.000779043
0.000741713
0.000721786
0.00071485
0.000687834
0.000671602
0.000670705
0.000671323
0.00052397
0.000612438
0.00081829
0.00079593
0.0007996
0.0007783
0.000754482
0.000709853
0.000681145
0.000565195
0.000523514
0.00058155
0.000763903
0.000765847
0.000813079
0.000804497
0.000761081
0.000696418
0.000625354
0.000536101
0.000527229
0.00053969
0.00072523
0.000687784
0.000691614
0.000755455
0.00075558
0.00070982
0.000619975
0.000532945
0.000518726
0.000525968
0.000625732
0.000635107
0.000633005
0.000679121
0.000716388
0.000684715
0.000587628
0.000524793
0.000517402
0.000289132
0.000295774
0.000296405
0.000291923
0.000266634
0.000210047
0.000182976
0.00017302
0.000170326
0.000170004
0.000290891
0.00029378
0.000290985
0.000273552
0.000228467
0.000189806
0.000177554
0.000175049
0.000181296
0.000170555
0.00029028
0.000291458
0.00028393
0.000255275
0.000208054
0.000183006
0.000175619
0.000174246
0.000171095
0.000168247
0.000288867
0.000287176
0.000272831
0.000241593
0.000200042
0.000182771
0.000174531
0.00017291
0.000169404
0.000170252
0.000285877
0.000282632
0.000265501
0.000235064
0.000200863
0.000184731
0.000178353
0.000172246
0.000172773
0.000176072
0.000283346
0.000277293
0.000257715
0.000234244
0.00020553
0.000191154
0.000182377
0.000182076
0.000185822
0.000185157
0.000277955
0.000270423
0.000253154
0.000236247
0.000218516
0.00021099
0.000199633
0.000197705
0.000192333
0.000186307
0.000275152
0.00026441
0.000241512
0.000197118
0.000202633
0.000205021
0.000203742
0.000200605
0.000183344
0.000178248
0.000267644
0.000230654
0.000184663
0.000176086
0.000177947
0.000189649
0.000192693
0.000186288
0.000174507
0.000169949
0.000261933
0.000217306
0.000177028
0.000177231
0.000177078
0.000188892
0.000184832
0.000161788
0.000148177
0.000135779
0.000465403
0.000460276
0.000439652
0.0003968
0.000358216
0.000309858
0.000271119
0.000233846
0.000213188
0.000202795
0.000409853
0.000399707
0.000349628
0.000324875
0.000283442
0.000250926
0.000222204
0.000200583
0.000190542
0.000186111
0.000335428
0.000328114
0.00028371
0.000264574
0.000226772
0.000208989
0.000187669
0.0001776
0.000173223
0.00017299
0.000280059
0.000269832
0.000230102
0.000213811
0.000186923
0.000175036
0.000157194
0.000150653
0.000148664
0.000165351
0.000231438
0.000213012
0.000186739
0.000175541
0.000153396
0.000142954
0.000130827
0.000128095
0.00013025
0.000144893
0.000197414
0.000181913
0.000167442
0.000155187
0.000135342
0.00012548
0.000112919
0.000112251
0.000119762
0.000136925
0.000189431
0.000180688
0.000170263
0.000160752
0.000147972
0.000131006
0.000113323
0.000106456
0.000114134
0.000132305
0.000189372
0.000182794
0.000179364
0.000180573
0.000177089
0.000133585
0.000114246
0.000104719
0.000115753
0.000127902
0.000192889
0.000189105
0.000198213
0.000206859
0.000196918
0.000141623
0.000115956
0.00010618
0.000115855
0.000118811
0.000202294
0.000194843
0.000210071
0.000224832
0.000205588
0.000143071
0.000122383
0.000110488
0.000112354
8.86126e-05
0.000157214
0.000118358
0.000111436
0.000110327
0.00011327
0.000126743
0.000143774
0.000152563
0.000159119
0.000171745
0.000165075
0.000120531
0.000110008
0.000106851
0.000108299
0.000118723
0.000132448
0.000141308
0.000151937
0.000169047
0.000195673
0.000135309
0.000115663
0.0001079
0.000106691
0.000111943
0.000121078
0.000133899
0.000145472
0.000160073
0.000289926
0.000185072
0.000144641
0.000124752
0.000115945
0.000111722
0.000113224
0.000127251
0.000135998
0.000138153
0.000479217
0.00034083
0.00023995
0.000183522
0.000158595
0.000128793
0.000111062
0.00011859
0.000124098
0.000118496
0.000601245
0.000514297
0.000430831
0.000331804
0.000236779
0.000159592
0.000113277
0.000107393
0.00010921
9.75279e-05
0.000647456
0.000599085
0.000551077
0.000475403
0.000343383
0.000223316
0.000131801
0.000101093
9.29313e-05
8.27934e-05
0.000649903
0.000615122
0.000586482
0.000543826
0.000456065
0.000294497
0.000168768
0.000105016
8.58724e-05
7.63891e-05
0.000630537
0.000611737
0.000586872
0.000560979
0.000511462
0.000391361
0.000228589
0.000127907
8.69289e-05
7.4982e-05
0.000554467
0.000574099
0.000569584
0.000554297
0.000523835
0.000453786
0.000292532
0.000163635
9.51138e-05
7.56067e-05
0.000738178
0.000754163
0.000807524
0.000958307
0.00106787
0.00117685
0.00137971
0.00179298
0.00172785
0.00153148
0.000783046
0.000756551
0.00075255
0.00079893
0.000917595
0.00104752
0.00119142
0.00149732
0.00148835
0.00136117
0.00103005
0.000831686
0.000760118
0.000741404
0.000763145
0.000814923
0.000912409
0.00109657
0.00125789
0.00124044
0.00127186
0.00106639
0.000840605
0.000751388
0.000735916
0.00075686
0.000821569
0.000955255
0.00114656
0.00121549
0.0014722
0.00125663
0.000991175
0.000826628
0.000774379
0.000793388
0.000854683
0.000983535
0.00115519
0.00122473
0.00203204
0.00169857
0.00134966
0.00108853
0.0009593
0.000968836
0.0010411
0.00115445
0.00123596
0.00127074
0.00243168
0.00200799
0.00170296
0.00150603
0.00140272
0.00136001
0.00140042
0.00142815
0.00141264
0.00135952
0.00217567
0.00189597
0.00169879
0.00158376
0.0015351
0.00149326
0.00147368
0.00146774
0.00143794
0.00136206
0.00150067
0.00147984
0.00147439
0.00142395
0.00141173
0.00140555
0.0014007
0.00139
0.00135727
0.00128484
0.00107778
0.00112668
0.00118224
0.00121754
0.00124079
0.00124763
0.00124316
0.00121857
0.00116928
0.00107621
0.000620123
0.000630725
0.000649961
0.000701784
0.000795021
0.000860339
0.000937084
0.00108243
0.00137285
0.00142509
0.000652726
0.00064454
0.00064863
0.000660682
0.000705756
0.000786623
0.000857039
0.00100044
0.00121571
0.00127175
0.000826019
0.000725696
0.000674199
0.000660874
0.000659831
0.000678571
0.000715602
0.000797129
0.000949172
0.00101455
0.000983965
0.000909459
0.000784473
0.00069374
0.000660619
0.00064694
0.000655798
0.00068635
0.000764024
0.000863836
0.0010963
0.00102678
0.000909276
0.000787799
0.000700318
0.000660065
0.000659412
0.000680084
0.000735306
0.000812442
0.00136886
0.00129328
0.00116445
0.00100937
0.000853128
0.000759097
0.000718981
0.000729206
0.000763943
0.000822136
0.00198699
0.00184453
0.00159379
0.00135763
0.00116564
0.00102439
0.000937234
0.000891392
0.000892148
0.000904774
0.00201979
0.00184223
0.00163468
0.00144295
0.0013128
0.00122283
0.00117328
0.00112217
0.00107161
0.00102996
0.00155074
0.00149648
0.00145903
0.00138015
0.00130844
0.00126114
0.00122757
0.00118818
0.00113989
0.00109045
0.00103143
0.00107685
0.00113988
0.00116963
0.0011861
0.00117649
0.00115736
0.00113703
0.00109932
0.00104624
0.000542359
0.000554404
0.000565393
0.00058634
0.000633438
0.000692972
0.000738632
0.000793465
0.000899355
0.00108927
0.000557837
0.000561087
0.000567222
0.000577961
0.000595323
0.000635551
0.000679913
0.000742
0.000855685
0.000979372
0.000661066
0.000623519