/*--------------------------------*- C++ -*----------------------------------*\
  =========                 |
  \\      /  F ield         | OpenFOAM: The Open Source CFD Toolbox
   \\    /   O peration     | Website:  https://openfoam.org
    \\  /    A nd           | Version:  9
     \\/     M anipulation  |
\*---------------------------------------------------------------------------*/
FoamFile
{
    format      ascii;
    class       volScalarField;
    location    "80";
    object      f13.gas;
}
// * * * * * * * * * * * * * * * * * * * * * * * * * * * * * * * * * * * * * //

dimensions      [0 0 0 0 0 0 0];

internalField   nonuniform List<scalar> 
137980
(
0.0140345
0.0139613
0.0141232
0.0146428
0.0152898
0.0160747
0.0171088
0.0188137
0.0200275
0.0225529
0.0138828
0.0138576
0.0141781
0.014827
0.0156572
0.0166112
0.0178423
0.0196436
0.0214214
0.0228725
0.0137383
0.0137261
0.0141163
0.0148649
0.0158104
0.0168916
0.0182595
0.0200579
0.0221714
0.0230662
0.0135084
0.0135208
0.013938
0.0147106
0.0157616
0.0169697
0.0184057
0.020118
0.0220673
0.022938
0.0132436
0.0132695
0.013665
0.0143977
0.0154637
0.016784
0.01827
0.0199262
0.0215477
0.0223463
0.0130481
0.0130502
0.0133551
0.0139666
0.014911
0.0162107
0.0177838
0.0194173
0.0208771
0.0215551
0.0130499
0.0129844
0.0131174
0.0135226
0.014247
0.0152772
0.0166376
0.018237
0.0197403
0.0206788
0.0134144
0.0131034
0.0130689
0.013229
0.0136672
0.0144035
0.0153782
0.0165222
0.017617
0.0186199
0.0141492
0.0135035
0.0132097
0.0131908
0.0133006
0.0137808
0.0145226
0.0154723
0.0164345
0.0170469
0.0147962
0.0141027
0.0136173
0.0133369
0.0132611
0.0133426
0.0138139
0.0146645
0.0156889
0.0165567
0.0140394
0.0140258
0.0143001
0.0149779
0.0159416
0.0173127
0.0196355
0.0207057
0.0199979
0.0231656
0.013922
0.0139643
0.0144295
0.0153142
0.016515
0.0182225
0.0210155
0.0220952
0.0218013
0.0239769
0.0137869
0.0138764
0.014458
0.0154531
0.0167898
0.0187367
0.0220082
0.0236172
0.0237273
0.0250566
0.0135746
0.0137024
0.0143133
0.0153819
0.0168824
0.0190212
0.0225789
0.0251578
0.0256929
0.0259711
0.013357
0.0134755
0.0140466
0.0150698
0.0166318
0.0188723
0.0222588
0.0258054
0.0270986
0.0271398
0.0132705
0.0133147
0.013707
0.0145829
0.0160249
0.0182178
0.0213094
0.0253921
0.0272026
0.0278249
0.0135
0.0133726
0.0134435
0.0140182
0.0151679
0.0169782
0.0196397
0.0235909
0.0265151
0.0275948
0.0144756
0.0137465
0.0135246
0.0136167
0.0143295
0.0156459
0.0175827
0.0202163
0.0237084
0.0262413
0.0159316
0.0146552
0.0139099
0.0135775
0.0137567
0.0146075
0.0159806
0.0178317
0.0198346
0.0217975
0.0163527
0.0153733
0.0145831
0.0138418
0.0135732
0.0138304
0.0146459
0.0160097
0.0178944
0.0182443
0.0140713
0.0141638
0.0146388
0.0155574
0.0168901
0.0191643
0.0218862
0.0218571
0.0202174
0.0242933
0.0139948
0.0142056
0.0149517
0.0161656
0.0179943
0.0211974
0.0234403
0.023403
0.0218352
0.0248545
0.0139026
0.0142154
0.0150968
0.0165451
0.0187828
0.0225998
0.0248337
0.0249733
0.0235245
0.0256413
0.0137423
0.0141267
0.0150975
0.0166812
0.0191662
0.023462
0.0261599
0.0266019
0.0255074
0.0263899
0.0136259
0.0139612
0.0148889
0.0165134
0.0191757
0.0238016
0.0272165
0.0279281
0.027298
0.0274323
0.0137002
0.0138446
0.0145193
0.0159971
0.0185903
0.0232025
0.0279038
0.0291801
0.0287734
0.0284829
0.0142238
0.0139807
0.0141972
0.0152756
0.0175226
0.0214248
0.0274818
0.0300394
0.0306048
0.0295266
0.0156197
0.0144431
0.0141835
0.0146629
0.0162794
0.0193639
0.025186
0.0296373
0.0312113
0.0311893
0.0169876
0.0156163
0.0145721
0.0144047
0.0152521
0.0175188
0.0214004
0.0276332
0.0303239
0.0312583
0.0172564
0.0163102
0.0153922
0.0144191
0.0145768
0.016003
0.0188344
0.0228637
0.0260082
0.0256223
0.0142265
0.0145755
0.0154355
0.0167788
0.019053
0.02335
0.0239892
0.0218158
0.0215632
0.028914
0.0142911
0.0149065
0.0161719
0.0182152
0.0222685
0.0251957
0.0252576
0.0234537
0.0230977
0.0300719
0.0143301
0.015141
0.0167029
0.0192419
0.0238482
0.0264869
0.0266821
0.024931
0.0244659
0.0305816
0.0143303
0.0152338
0.0169457
0.0197435
0.0246709
0.0275194
0.0279395
0.0264265
0.0255823
0.0310621
0.0143457
0.0151983
0.0169031
0.0198231
0.0249241
0.0283372
0.0290327
0.0278689
0.0267034
0.0309996
0.0144686
0.0150801
0.0165134
0.0192913
0.0244134
0.0288287
0.0299639
0.0293657
0.0280489
0.0306473
0.0149048
0.0150315
0.0160152
0.018352
0.0229844
0.0287794
0.0307744
0.0309247
0.0297316
0.030644
0.0159241
0.0153186
0.0156868
0.0173716
0.0210201
0.0278965
0.0310332
0.0320662
0.0310976
0.0312505
0.0169831
0.0159998
0.0156938
0.0165894
0.0193629
0.0254283
0.0307459
0.0327097
0.0332518
0.0328711
0.0172334
0.0164712
0.0160084
0.0159875
0.018036
0.0230839
0.0290795
0.0319613
0.0331886
0.0322668
0.0150514
0.0160186
0.0182501
0.0207843
0.0230987
0.0234962
0.0217085
0.021165
0.0284102
0.0341326
0.015637
0.0173667
0.0211746
0.0241351
0.0249617
0.0245329
0.023492
0.0237765
0.0317087
0.0340167
0.0161274
0.0184956
0.0230803
0.0258639
0.0264994
0.0260492
0.0254604
0.0271154
0.0323476
0.0322555
0.0164974
0.019041
0.0239967
0.0271082
0.0278242
0.02762
0.0273058
0.0292939
0.0326882
0.0311301
0.0166822
0.0191619
0.0239835
0.0278845
0.0289794
0.0290732
0.0288699
0.0304856
0.0328198
0.0318231
0.016687
0.0188105
0.0230769
0.0280502
0.0299481
0.0303255
0.0300677
0.0308963
0.0329554
0.0328632
0.0166757
0.018166
0.0215278
0.0274898
0.0304605
0.0313937
0.0312642
0.0313872
0.0328822
0.0331296
0.0169091
0.0176739
0.0201487
0.0255584
0.0302681
0.0320779
0.0324419
0.0321896
0.0329526
0.0331616
0.0172861
0.0173877
0.019022
0.0228023
0.029189
0.0320759
0.0333011
0.033156
0.0335501
0.0336193
0.0172666
0.0173225
0.0182822
0.0208496
0.0274649
0.0315101
0.0334166
0.0343476
0.0348696
0.0351692
0.0186979
0.0190153
0.0191191
0.0199086
0.0214125
0.0214367
0.0212333
0.0266188
0.0343622
0.0337959
0.0211943
0.0222117
0.0226541
0.0230627
0.0232411
0.0232127
0.0257233
0.0314778
0.0326996
0.0257092
0.0233517
0.0244675
0.0249365
0.025236
0.0255222
0.0269142
0.0300044
0.0309455
0.0275043
0.0202036
0.0247544
0.0261966
0.0268176
0.0272718
0.0280746
0.0294806
0.030001
0.0291957
0.0214519
0.0181539
0.0256553
0.0275869
0.0284735
0.0291295
0.0299211
0.0302237
0.0296263
0.0259422
0.0199673
0.0181513
0.0258206
0.028569
0.0299098
0.0305676
0.0308185
0.030268
0.028711
0.0242572
0.0201509
0.0191134
0.0254314
0.0286257
0.0307856
0.0314074
0.0313326
0.0304877
0.0287337
0.0243272
0.0211262
0.0218539
0.0240446
0.0280847
0.030758
0.0318566
0.0319407
0.0310323
0.0293062
0.0251731
0.022897
0.0260328
0.0221037
0.0267265
0.0302079
0.0318555
0.0323303
0.0317537
0.0305557
0.027195
0.024999
0.0270065
0.0203884
0.0242167
0.0288825
0.0316072
0.0324546
0.0326832
0.0321891
0.03114
0.0300465
0.0304512
0.0194017
0.0204063
0.0210759
0.022376
0.024192
0.0278311
0.0317534
0.0320934
0.0277943
0.0260446
0.0219956
0.0226275
0.0236102
0.0254968
0.0289943
0.0307053
0.0308598
0.0273523
0.0223556
0.0207047
0.0242356
0.024756
0.0263513
0.0289363
0.0303273
0.030272
0.0282841
0.0220811
0.0195571
0.0183457
0.0264256
0.0270787
0.0290514
0.0300953
0.0301765
0.0290808
0.0242687
0.0197898
0.0182481
0.0175074
0.0283184
0.0292268
0.0303111
0.0304609
0.0297281
0.0269558
0.0213357
0.0190181
0.0182752
0.0179942
0.0297035
0.0304765
0.0307762
0.0303533
0.0288591
0.0247056
0.0204198
0.0191869
0.0189849
0.0207413
0.03044
0.0309592
0.0309822
0.0303539
0.0281871
0.0235779
0.0205577
0.0197717
0.0214758
0.025325
0.030685
0.0312716
0.0312463
0.030506
0.0284322
0.0237797
0.0210592
0.020675
0.0229225
0.0274842
0.0305126
0.0312698
0.0314567
0.0308841
0.029065
0.0247178
0.0220762
0.0215001
0.0234034
0.0275082
0.0301683
0.0311868
0.0314421
0.031334
0.0303384
0.0269955
0.0244245
0.0232307
0.0245115
0.0274372
0.0278652
0.0280372
0.0271485
0.0263534
0.0250799
0.0240306
0.022992
0.0221813
0.0217082
0.0215205
0.0265783
0.0263732
0.025093
0.0244559
0.0231708
0.0219995
0.0209986
0.0201701
0.0195386
0.0191417
0.0260473
0.0253913
0.0244743
0.0235686
0.0220763
0.0209279
0.0198693
0.019173
0.0188228
0.018306
0.026163
0.0254256
0.0242902
0.0227077
0.0208453
0.0195158
0.0188929
0.0187227
0.0186984
0.018743
0.0266975
0.0258034
0.0242711
0.0219803
0.0200799
0.0191858
0.0189872
0.0196739
0.0210331
0.0215768
0.0275244
0.0264161
0.024395
0.0218745
0.0199083
0.0192254
0.0192237
0.0207404
0.0228189
0.0240363
0.0283913
0.0271917
0.0248252
0.0221375
0.0199661
0.0191147
0.0190242
0.0203248
0.0231377
0.0250067
0.0291478
0.0280806
0.0257381
0.0228429
0.0203973
0.0191486
0.0186478
0.0193636
0.0219979
0.0252656
0.0295366
0.0289282
0.0269294
0.0243284
0.0215465
0.0197317
0.0188892
0.0191432
0.0201765
0.0244912
0.0296232
0.0296099
0.0280984
0.0262015
0.0243261
0.0219943
0.0205381
0.0209415
0.0220737
0.0245484
0.0256016
0.0259336
0.024921
0.0244977
0.0238181
0.0232887
0.0225394
0.022104
0.0216339
0.0214095
0.0242799
0.0241715
0.0229646
0.0224269
0.0215728
0.0212064
0.0208951
0.0207403
0.0205896
0.020285
0.0226128
0.0219815
0.0206371
0.0200778
0.0197663
0.0196703
0.0198638
0.0201288
0.0202248
0.0202325
0.0218398
0.0204036
0.0190913
0.0185383
0.0183145
0.0183917
0.0193321
0.0201737
0.021013
0.0213775
0.0219876
0.0197504
0.0182062
0.0174761
0.0171938
0.0173571
0.0185927
0.0200948
0.021559
0.0222156
0.0226602
0.0201365
0.0182618
0.0169956
0.016465
0.016406
0.0172096
0.0194001
0.0216356
0.0225833
0.024049
0.0212693
0.0188323
0.0173747
0.0165055
0.0161989
0.0164883
0.0178183
0.020151
0.0223707
0.0257152
0.0226729
0.0201773
0.0185428
0.017645
0.0170137
0.0170175
0.017442
0.0190879
0.0219445
0.0267991
0.0243249
0.0221934
0.0208024
0.0203601
0.0195006
0.0190024
0.0192399
0.019927
0.0221445
0.0277147
0.0255844
0.0238117
0.0236465
0.0239056
0.0223521
0.0216126
0.0218452
0.0225292
0.0236426
0.0254566
0.0259477
0.0259605
0.0256637
0.025333
0.0248919
0.0244163
0.0238938
0.0234278
0.0231885
0.0232706
0.0235538
0.0235041
0.0233545
0.0230566
0.0228317
0.0224213
0.0220721
0.0215431
0.0210874
0.0217076
0.0215174
0.0211666
0.0210093
0.0209259
0.0209172
0.0209378
0.0208837
0.0207039
0.0204386
0.0203404
0.0195504
0.0190892
0.0187905
0.0186719
0.0187777
0.0192972
0.0197466
0.0201822
0.020386
0.0200567
0.0185894
0.0178324
0.0173731
0.0171762
0.0171857
0.0177575
0.0187453
0.019943
0.0206364
0.0204422
0.0188236
0.0174678
0.0166655
0.0163182
0.0162616
0.0165915
0.0174235
0.0190451
0.0206842
0.0220288
0.0196344
0.0178431
0.0167587
0.0161587
0.0160743
0.0162839
0.0169444
0.0183675
0.02053
0.0235791
0.0211059
0.0187201
0.0173531
0.0167678
0.0167445
0.0169206
0.0174075
0.0183711
0.0204367
0.0241816
0.0222963
0.0200471
0.018495
0.0185238
0.0187067
0.0189158
0.019365
0.0200192
0.0214163
0.0245258
0.0226774
0.020775
0.0205834
0.0214435
0.0215501
0.0212324
0.0213457
0.0215946
0.0220903
0.0284552
0.0295939
0.0299625
0.0301308
0.0300509
0.0295851
0.0289735
0.0281021
0.0274325
0.0266944
0.0261182
0.0266483
0.0268068
0.0268437
0.0265943
0.0260651
0.0253567
0.0244667
0.0237142
0.0228569
0.0250309
0.0253409
0.0254034
0.0253678
0.0250449
0.0246333
0.0239788
0.0232132
0.0224631
0.0215472
0.0231334
0.0231847
0.023154
0.0231149
0.0229523
0.022711
0.0223655
0.022042
0.0215501
0.0207156
0.0216286
0.0211872
0.0209062
0.0206788
0.0204357
0.0202186
0.0201079
0.020072
0.0200215
0.0198708
0.0208582
0.0201359
0.019425
0.0189804
0.018616
0.0182809
0.0180938
0.0181174
0.0182476
0.0188356
0.0217926
0.0203265
0.0190234
0.0181405
0.0175837
0.0172562
0.0170814
0.0171408
0.0172565
0.0180256
0.0230587
0.0213921
0.0194297
0.0181431
0.0174099
0.0170915
0.0170216
0.0170719
0.0172389
0.0179375
0.0234593
0.0226972
0.020524
0.0186949
0.0180632
0.0178399
0.0179193
0.0181035
0.0184739
0.0196375
0.0234319
0.0229423
0.0212153
0.0195811
0.0196198
0.0195752
0.0194306
0.0194709
0.0195837
0.0204786
0.0238039
0.0237608
0.0212451
0.0200725
0.0195211
0.019395
0.0200673
0.022005
0.0268156
0.0306672
0.0272233
0.0253574
0.0237832
0.0227387
0.0223889
0.0231909
0.0256413
0.0275561
0.0281857
0.0278473
0.0283662
0.0279333
0.0270348
0.0266278
0.0265585
0.0271318
0.0273622
0.0273457
0.0258234
0.0221731
0.0284482
0.028468
0.0280045
0.0277503
0.0274967
0.0273521
0.0269298
0.0252982
0.0217477
0.0202031
0.0276121
0.0282038
0.028035
0.0276646
0.0273843
0.0268259
0.0252901
0.0223315
0.020383
0.0194348
0.0258922
0.0271571
0.0273318
0.0271294
0.026597
0.0254153
0.0233542
0.0209316
0.0197726
0.0193364
0.0251301
0.025799
0.0261121
0.0260429
0.0255408
0.0243225
0.0221763
0.0198978
0.018915
0.0188622
0.0251074
0.0246372
0.024933
0.0248913
0.0246261
0.0238028
0.0222039
0.0200335
0.0186989
0.0185489
0.0253214
0.0244704
0.0239585
0.0236728
0.0234392
0.023063
0.0222956
0.0205695
0.01906
0.0192133
0.0241429
0.024837
0.0232885
0.0226157
0.0227225
0.0226456
0.0223643
0.0215674
0.020047
0.0200929
0.0328213
0.0325255
0.0307037
0.0289638
0.0281164
0.028834
0.0284588
0.0262515
0.0244118
0.0216685
0.0310186
0.0294418
0.0281768
0.0269243
0.0263418
0.0265844
0.0277596
0.0278755
0.0272598
0.0257431
0.0290025
0.0282676
0.0273533
0.0263214
0.0259323
0.026159
0.0268654
0.0277751
0.0274263
0.0260127
0.0275134
0.0272732
0.0264124
0.0255937
0.0255942
0.0259649
0.0266209
0.0271973
0.0268025
0.0253537
0.0269824
0.0268048
0.0258608
0.0252945
0.0253556
0.025766
0.0259936
0.0260668
0.0253418
0.024414
0.0267755
0.0262114
0.0250634
0.0248495
0.0250751
0.0252078
0.0251814
0.0251783
0.0245307
0.0240236
0.0266389
0.025721
0.0246937
0.0244551
0.0245838
0.0245374
0.0244975
0.0243785
0.0239768
0.0236815
0.0261019
0.025514
0.0244606
0.0239663
0.0239824
0.0239025
0.0239131
0.0239042
0.023533
0.0229385
0.0251037
0.0254295
0.0243459
0.0235048
0.0232405
0.0231472
0.0231539
0.0232528
0.0228551
0.0227639
0.0236665
0.0246183
0.0241744
0.0233335
0.0229392
0.0228326
0.022895
0.0231175
0.022927
0.0229412
0.0347881
0.0335217
0.0326867
0.0309409
0.0284094
0.0266142
0.0256415
0.0256083
0.0257316
0.0261066
0.0309894
0.0298979
0.0290138
0.0274263
0.0256623
0.0242608
0.0237259
0.0237794
0.0241137
0.0242653
0.0288414
0.0284418
0.0276656
0.0260467
0.0244276
0.0230784
0.022409
0.0225076
0.022938
0.0233618
0.0279942
0.0277187
0.0264838
0.0243866
0.0226755
0.0216316
0.0215971
0.021873
0.0225181
0.0231028
0.0276757
0.0271152
0.0250489
0.0231788
0.0217698
0.0211779
0.0213598
0.0218196
0.0225015
0.0231393
0.027407
0.0263402
0.0241193
0.0224214
0.0212684
0.0210576
0.0213412
0.0219593
0.0226036
0.0231675
0.026896
0.0257262
0.0237211
0.0220668
0.0211204
0.0210365
0.0214742
0.0220898
0.0226187
0.0230615
0.0263096
0.0254417
0.0235724
0.0219404
0.0211101
0.0210839
0.021614
0.0223281
0.0226862
0.022936
0.0257035
0.0251676
0.0235324
0.0221088
0.0214296
0.0213694
0.0219043
0.0226727
0.0231664
0.023742
0.0251351
0.0246054
0.0232656
0.022355
0.0219981
0.0222121
0.0227095
0.0233745
0.023654
0.0237224
0.0292165
0.0279304
0.0256912
0.0240649
0.0229621
0.0218751
0.0211577
0.0213053
0.0219962
0.0225877
0.0293165
0.0279157
0.0251752
0.0229806
0.0214213
0.0203645
0.0199551
0.0200537
0.0205592
0.0208145
0.0284144
0.0266501
0.0236749
0.0213094
0.0196799
0.0187962
0.0186939
0.0188734
0.0194212
0.0197654
0.028053
0.0260637
0.0228405
0.0200902
0.018618
0.0179876
0.0179631
0.0181681
0.0187445
0.0193304
0.0274557
0.024824
0.0217003
0.0193167
0.0181679
0.0176909
0.0177037
0.0179482
0.0184994
0.0193313
0.0269089
0.0242003
0.0212139
0.0190494
0.0180371
0.0176555
0.0176827
0.0179815
0.0185238
0.0194702
0.0261611
0.0235287
0.0210007
0.0190125
0.0182462
0.0180523
0.0180145
0.0181784
0.0187013
0.0197835
0.0255912
0.0232036
0.0209594
0.0194612
0.0190219
0.0189704
0.0188176
0.018703
0.0190674
0.0201413
0.0251912
0.0228426
0.0211151
0.0200928
0.0199284
0.0202753
0.0202235
0.0200713
0.0202782
0.0210007
0.0249118
0.0225874
0.0211892
0.0206093
0.0207947
0.0214671
0.0216203
0.0214862
0.0211081
0.0210549
0.0279352
0.0253385
0.0232933
0.021651
0.0206103
0.0196363
0.0189473
0.0193132
0.0204878
0.0221376
0.0283625
0.0256246
0.0231445
0.0210722
0.0197123
0.0187972
0.0182379
0.0183389
0.0189298
0.019241
0.0277761
0.0248466
0.0222175
0.0201543
0.0189279
0.0181281
0.0176476
0.01766
0.0179257
0.0182406
0.0274198
0.0244852
0.0218216
0.0197272
0.018576
0.0178547
0.0174041
0.017249
0.0173735
0.0176942
0.0266324
0.023697
0.0212832
0.0194639
0.0184378
0.017777
0.0173498
0.0171273
0.0171961
0.0175811
0.0261246
0.023306
0.0210293
0.0193779
0.0184591
0.0179506
0.0175415
0.017233
0.0172745
0.0178378
0.0253623
0.0225792
0.0207464
0.0194262
0.0189526
0.0185854
0.0180959
0.0176411
0.0175528
0.0181582
0.0247942
0.0222087
0.0206149
0.0198111
0.0196723
0.019533
0.019055
0.0184575
0.0181906
0.0183947
0.024306
0.0216499
0.0204489
0.0200774
0.0203989
0.0204794
0.0202279
0.019756
0.019615
0.0198458
0.024084
0.0212607
0.020241
0.0202129
0.0208227
0.0209694
0.0208025
0.0204486
0.0202069
0.0196402
0.0306977
0.0291564
0.0275311
0.025913
0.0249186
0.0240465
0.0237629
0.0234489
0.0230059
0.0211463
0.0310547
0.0296391
0.027908
0.0258757
0.0246579
0.0237885
0.0231319
0.0227762
0.0219927
0.0216144
0.0310516
0.0297678
0.0282839
0.0260999
0.0246491
0.0236783
0.0227368
0.0219835
0.0211436
0.0198464
0.0305405
0.0297779
0.0287152
0.0267684
0.0251412
0.0236888
0.0224464
0.0213362
0.0201325
0.0185252
0.0300873
0.0294608
0.0288863
0.027266
0.0255745
0.0238966
0.0223113
0.0210209
0.0196581
0.0177703
0.029482
0.0288617
0.0289541
0.0278025
0.0260568
0.024329
0.0223514
0.0209269
0.0195012
0.0176009
0.0291263
0.027928
0.0287472
0.0280564
0.0266035
0.0248732
0.0228977
0.0212261
0.0199641
0.018186
0.0289857
0.026476
0.027944
0.0281598
0.0268747
0.0255213
0.0234864
0.0217151
0.020614
0.0194182
0.0291915
0.0250524
0.0268071
0.0279611
0.0269885
0.0260367
0.0245654
0.0223443
0.0210525
0.0201573
0.029378
0.024101
0.0247587
0.0271669
0.0269645
0.0262483
0.025609
0.0245556
0.0230438
0.0222196
0.0301795
0.0278943
0.0267906
0.0259447
0.0251307
0.0243095
0.0232358
0.0220783
0.0217175
0.0220658
0.0299409
0.028227
0.0269649
0.0260266
0.0250681
0.0240463
0.0227872
0.0216229
0.0212995
0.0214606
0.0300015
0.028183
0.0268452
0.0259959
0.0250475
0.0239768
0.0226148
0.0214089
0.0208434
0.0205523
0.0300251
0.0278453
0.0265283
0.0259767
0.0250856
0.0239738
0.0225194
0.0211473
0.0203322
0.0199052
0.0297394
0.027411
0.0261296
0.0257642
0.0251799
0.0241114
0.0224892
0.0210127
0.0200732
0.0192501
0.0291387
0.0267897
0.0256449
0.0256312
0.0253323
0.0244
0.0225905
0.0209474
0.0199218
0.0188155
0.0287983
0.02608
0.0251337
0.0253443
0.0254171
0.0247041
0.0228818
0.0209395
0.019939
0.0188894
0.0282853
0.0254089
0.0245314
0.025041
0.0254125
0.0248094
0.0232047
0.0211973
0.0203414
0.0196939
0.0280496
0.0248624
0.0238688
0.0245599
0.0252067
0.0248065
0.0232986
0.0213238
0.0204092
0.0194784
0.0279728
0.024479
0.0231925
0.0240187
0.0246702
0.0245065
0.0232737
0.0213843
0.020102
0.0189411
0.0261241
0.0240508
0.0228046
0.0223025
0.0221052
0.0220198
0.022202
0.0230714
0.0233172
0.023473
0.0261756
0.024488
0.0236392
0.0230718
0.0228253
0.0227518
0.0228954
0.0234622
0.0237175
0.0243503
0.0273316
0.0253196
0.0244585
0.023797
0.0234858
0.0233994
0.0236542
0.0243809
0.0249994
0.0256246
0.0287985
0.0263788
0.0252391
0.0245941
0.0243278
0.0243467
0.0248499
0.0252685
0.0254008
0.0250544
0.029872
0.0275672
0.0260942
0.0254103
0.0251185
0.0251034
0.0253184
0.0253721
0.0251323
0.0231184
0.0304311
0.0288446
0.0269926
0.0261729
0.0256805
0.0254801
0.0254047
0.0252376
0.0243068
0.0224602
0.0306909
0.0297829
0.0279327
0.0269077
0.0261401
0.0256522
0.0253756
0.0248748
0.0236131
0.0222231
0.0306443
0.0303073
0.028982
0.0275064
0.0267801
0.0258848
0.0252836
0.0245221
0.0231965
0.0217225
0.0305831
0.0304072
0.0296511
0.0283299
0.0274045
0.0262663
0.0253926
0.0243122
0.0226837
0.0217012
0.0303916
0.0305256
0.0297164
0.0286359
0.027865
0.0270364
0.0258899
0.02452
0.0227832
0.0224188
0.0191725
0.0192602
0.0178511
0.0171886
0.0166407
0.0168346
0.0176219
0.018861
0.0197849
0.0208565
0.0199778
0.018947
0.0176866
0.0172649
0.0170921
0.017462
0.0181797
0.0193802
0.0205674
0.0223566
0.0208259
0.019091
0.0181472
0.0178312
0.017797
0.0181432
0.0189262
0.0201551
0.0220681
0.0227331
0.0216428
0.0198177
0.0190223
0.0187605
0.0187366
0.018958
0.0199126
0.0216558
0.0225269
0.0217274
0.0219966
0.0205188
0.019957
0.0198232
0.0197564
0.0202787
0.0215107
0.0223414
0.0224057
0.0203085
0.0222
0.0210137
0.0205965
0.0205433
0.0208829
0.021374
0.0221968
0.0226869
0.0221338
0.0193083
0.0223693
0.0216446
0.0213746
0.0214666
0.0217658
0.0221705
0.0227744
0.0227759
0.0215692
0.0190304
0.0226037
0.0222271
0.0220922
0.0221885
0.0224654
0.0228793
0.0230893
0.0228996
0.0215887
0.0190553
0.0229324
0.0229832
0.0228828
0.0229506
0.0230736
0.0232239
0.0234002
0.0231505
0.0218459
0.0191637
0.0233046
0.0235609
0.0235315
0.0236075
0.0237121
0.023759
0.0238487
0.0236732
0.0224361
0.0195231
0.0117651
0.01241
0.0135202
0.0153004
0.017077
0.0171599
0.0175849
0.0169725
0.0125039
0.0113934
0.0122378
0.013063
0.0146666
0.0155979
0.0168069
0.0170319
0.017649
0.0172268
0.0136839
0.0117979
0.0134476
0.014169
0.0149205
0.0160994
0.0164845
0.0166236
0.0171789
0.0167451
0.0137405
0.011521
0.014205
0.015004
0.0156068
0.0158337
0.0158618
0.0161358
0.0163696
0.0158436
0.0140325
0.0117597
0.0133987
0.0156862
0.0154587
0.0153038
0.0153259
0.0152199
0.0148555
0.0144799
0.0138299
0.0126215
0.0134599
0.0149666
0.0146009
0.014434
0.0142304
0.0140706
0.013772
0.0137061
0.0131748
0.0123736
0.0133199
0.0145883
0.0144108
0.014298
0.0140707
0.0136769
0.0137472
0.0136308
0.0129546
0.0117544
0.0128144
0.0147005
0.014637
0.0144775
0.0144637
0.0142648
0.0140752
0.0132119
0.0123809
0.0114781
0.012412
0.0144473
0.0144138
0.0142925
0.0144681
0.0145444
0.0142011
0.0130891
0.0122248
0.0114825
0.0124262
0.0135737
0.0136917
0.0139194
0.0142468
0.0143886
0.0138997
0.0128822
0.0125166
0.0116772
0.0108341
0.0112108
0.0112984
0.0112691
0.0108863
0.0100792
0.00936326
0.00907458
0.00896576
0.00892608
0.0109614
0.0111705
0.0111804
0.0109284
0.0103069
0.00949957
0.00917251
0.00906468
0.00904104
0.0089002
0.0109884
0.0111076
0.0110615
0.0106148
0.00991786
0.00929684
0.00910231
0.0090284
0.00891199
0.00888604
0.0109578
0.0109859
0.0108251
0.0103709
0.00973345
0.00925537
0.00907596
0.00896315
0.0088999
0.00888767
0.0108943
0.0109044
0.0106853
0.0102387
0.00973606
0.00928878
0.00911393
0.0089538
0.00897176
0.00900324
0.0108049
0.0107613
0.0104857
0.0101452
0.00978358
0.00941494
0.0091902
0.00917281
0.00913735
0.00905619
0.0106708
0.0106058
0.0103378
0.0100124
0.00980396
0.00961858
0.00944417
0.00935194
0.00916821
0.00898734
0.0105744
0.0104326
0.00999592
0.00915583
0.00926498
0.00938371
0.00935547
0.00928075
0.00888578
0.00880231
0.0104553
0.00974815
0.00895713
0.0087979
0.00877862
0.00891121
0.00892717
0.00886251
0.00875266
0.00870482
0.010223
0.00953014
0.00884956
0.00883356
0.00879743
0.00888968
0.00884927
0.00862625
0.00840889
0.00828566
0.0117205
0.0119232
0.0119946
0.0120179
0.0120097
0.0119228
0.0116414
0.0110527
0.0101732
0.00971962
0.0116085
0.011679
0.011679
0.0116331
0.0114837
0.0110642
0.0104121
0.00976862
0.00928189
0.0090577
0.0113022
0.0112464
0.0111499
0.0108524
0.0104067
0.00983985
0.00934435
0.00898531
0.00882014
0.00876653
0.0106971
0.0105931
0.0101613
0.00979639
0.00935173
0.00895368
0.00870108
0.00859555
0.00857168
0.00864088
0.00981388
0.00960239
0.00916378
0.00894327
0.00857466
0.00840535
0.0083165
0.00829296
0.00830487
0.00842539
0.0091503
0.00888342
0.0085447
0.00837949
0.00816149
0.00807647
0.00799898
0.00800016
0.0080394
0.00812566
0.00846355
0.00815908
0.00789493
0.00769841
0.00760547
0.00762586
0.00771704
0.00777202
0.00785159
0.00791169
0.00790568
0.00774569
0.00753599
0.00744742
0.00742553
0.00741328
0.00753446
0.00763146
0.00765307
0.00765959
0.00776961
0.00757543
0.00746972
0.00744282
0.0074389
0.00739586
0.00749303
0.00753859
0.00756334
0.00755873
0.00783641
0.00760265
0.0074622
0.00745345
0.0074666
0.00739699
0.00739626
0.00750805
0.00750049
0.00720373
0.0084932
0.00829998
0.00830439
0.00828224
0.00828302
0.00839843
0.00854882
0.00868405
0.00884036
0.00908494
0.00841891
0.0081635
0.00816607
0.00815431
0.00821252
0.00836704
0.00848673
0.0086222
0.00884633
0.00926534
0.00844888
0.0081153
0.00802333
0.00806807
0.00815436
0.00828519
0.00840819
0.00855469
0.00882055
0.00934334
0.00860307
0.00819193
0.00800556
0.00795787
0.00803522
0.00814239
0.00827438
0.00845846
0.00868597
0.00902343
0.00896219
0.00848981
0.00816163
0.0080041
0.00797898
0.00801729
0.00811164
0.00828273
0.00842065
0.00845433
0.00910729
0.00875861
0.00843721
0.00813647
0.00798519
0.00793127
0.00795009
0.00800799
0.00800876
0.0078471
0.00910745
0.00883312
0.00858397
0.0082865
0.00802923
0.00788604
0.00777832
0.00767546
0.00757221
0.00739562
0.00896257
0.00879392
0.0085774
0.0083283
0.0080876
0.00787737
0.0076656
0.00742539
0.00727728
0.0071795
0.00869317
0.00864908
0.008523
0.00832072
0.008083
0.00786808
0.00762058
0.00732781
0.00716181
0.00709665
0.00839861
0.00833342
0.00829836
0.00822573
0.00805882
0.00784868
0.00761584
0.0073029
0.00712345
0.00706448
0.0148672
0.0151399
0.0154502
0.0158644
0.0162806
0.0166536
0.0173455
0.0185383
0.0205684
0.0198937
0.0150692
0.0152069
0.0154933
0.0158875
0.0162827
0.01674
0.0173934
0.0186105
0.0205296
0.0201858
0.0158548
0.0156285
0.0156801
0.0159736
0.0164032
0.0169478
0.0176292
0.018885
0.0206508
0.0204163
0.0167609
0.0164082
0.0162606
0.0162882
0.0165735
0.0171863
0.0179371
0.0193359
0.0208425
0.0205088
0.0175962
0.0172924
0.0169652
0.0169308
0.0171083
0.0177257
0.0188277
0.0202512
0.0209081
0.0204379
0.0191166
0.0187663
0.0183927
0.0182912
0.0186233
0.0192919
0.0204404
0.0211321
0.020881
0.0202893
0.0211925
0.0206626
0.0205216
0.0206046
0.0209067
0.0213032
0.0212621
0.0209924
0.0205384
0.0198801
0.0216203
0.0214758
0.0215069
0.0214019
0.0212147
0.0210402
0.0207997
0.0204375
0.019881
0.019224
0.0199239
0.0200399
0.0203057
0.0203795
0.0203534
0.0201279
0.0198071
0.0194651
0.0190131
0.0184817
0.0176525
0.0182387
0.0187151
0.0190013
0.0191643
0.0191305
0.0188761
0.0185485
0.0181128
0.0175421
0.0142292
0.0145153
0.0147322
0.0150072
0.0153081
0.0155418
0.0158299
0.0162079
0.0168612
0.0181449
0.0142945
0.0144157
0.014696
0.0150021
0.0152793
0.0154993
0.0158325
0.0162385
0.016884
0.0181014
0.0147292
0.0146749
0.0147699
0.0150254
0.0153364
0.0156298
0.015989
0.0164132
0.0170998
0.0182244
0.0152893
0.0152021
0.0151392
0.0152234
0.0154801
0.0158151
0.0161815
0.0167056
0.0173919
0.0185092
0.0157696
0.0157224
0.0156198
0.0156303
0.0157444
0.0160183
0.0164333
0.0170163
0.0178616
0.0188825
0.0166287
0.0165881
0.0164848
0.0164134
0.0164044
0.0165735
0.0169788
0.0176873
0.0185077
0.01923
0.0182212
0.0180776
0.0178759
0.017746
0.0177329
0.0178475
0.0182248
0.0188291
0.0193238
0.0192294
0.0190671
0.0189569
0.0188816
0.0188805
0.0189389
0.0190567
0.0193043
0.019395
0.0192376
0.0189215
0.0189352
0.0189543
0.0190663
0.0191661
0.0192241
0.019204
0.0191332
0.0190144
0.018744
0.0183281
0.0173612
0.0177634
0.0182262
0.0184742
0.018582
0.0185299
0.0183689
0.018135
0.0177801
0.0174849
0.0141598
0.0143672
0.0146522
0.0148811
0.0150671
0.0152338
0.0153821
0.0155129
0.0156795
0.0161568
0.0140146
0.0140824
0.0143095
0.0146247
0.0148554
0.0150227
0.0151877
0.0153929
0.015634
0.0161302
0.0141614
0.0141845
0.0143185
0.0145782
0.0148524
0.0150625
0.0152828
0.0154916
0.0157437
0.0162169
0.014561
0.0145575
0.014566
0.0146804
0.0149333
0.0151868
0.0154542
0.0157246
0.015997
0.0164565
0.0148365
0.0148953
0.0149407
0.0149726
0.0151131
0.0153513
0.0156194
0.0158874
0.0161962
0.0166657
0.0152801
0.0154216
0.015498
0.0155346
0.0155654
0.0156857
0.0159066
0.0161613
0.0164676
0.016931
0.0162975
0.0164545
0.0164411
0.0164167
0.0164137
0.0164382
0.0165449
0.0167389
0.0170258
0.0172918
0.0170702
0.0171111
0.0170956
0.0170873
0.0170823
0.0171103
0.0171872
0.0172741
0.0174242
0.0175784
0.0171347
0.017147
0.0171745
0.0172137
0.0172553
0.0172787
0.0173252
0.0173912
0.0174258
0.0174323
0.0166463
0.0166262
0.0167659
0.0169053
0.0169774
0.0170235
0.0170564
0.017049
0.0169523
0.0170096
0.014356
0.0145482
0.0148903
0.0150947
0.0152456
0.015344
0.0154169
0.0154133
0.0153813
0.015426
0.0139607
0.0140126
0.0142626
0.0145631
0.014777
0.0148955
0.0149636
0.0150186
0.0151306
0.0152866
0.0139339
0.0139626
0.0141135
0.0143885
0.0146198
0.0148064
0.0149505
0.0150474
0.015175
0.0153439
0.0140968
0.0141498
0.0142415
0.0144464
0.0146727
0.0148721
0.0150576
0.0152379
0.0154086
0.0156049
0.0143151
0.0144122
0.01456
0.0146928
0.0148661
0.0150462
0.0152283
0.0153971
0.0155715
0.0157696
0.0145511
0.0147643
0.0149791
0.0151436
0.0152737
0.0153818
0.0155101
0.0156349
0.0157582
0.0159137
0.0151018
0.0154471
0.0156386
0.0157448
0.0158024
0.0158426
0.0158757
0.0159335
0.0160244
0.0161048
0.015748
0.0159635
0.0160514
0.0160818
0.016095
0.0160952
0.0161071
0.0161312
0.0161646
0.0162324
0.0160209
0.0160744
0.0160883
0.0161007
0.0161022
0.0160958
0.0161076
0.0161254
0.0161505
0.0161921
0.0160066
0.015922
0.0158763
0.015878
0.0158853
0.0158827
0.0158869
0.0159074
0.0159176
0.0159956
0.0148752
0.0150438
0.0154686
0.015671
0.0157677
0.015748
0.0156698
0.0155471
0.0153194
0.0151262
0.0141232
0.0141554
0.0144196
0.0147295
0.0149092
0.0149653
0.0149504
0.0148986
0.0148521
0.0148262
0.0138323
0.0138586
0.0140581
0.0143502
0.0145615
0.0146967
0.0147601
0.0148006
0.0148175
0.0148509
0.0138136
0.0138716
0.0140641
0.0143371
0.0145508
0.0147058
0.014807
0.0148852
0.0149526
0.0150706
0.0139046
0.0140704
0.0142913
0.0145306
0.0147406
0.0148954
0.0150248
0.0151194
0.0151943
0.0152766
0.0140575
0.0143316
0.0146492
0.0149243
0.0151344
0.0152527
0.0153338
0.0153793
0.0153955
0.0154358
0.0143864
0.0148012
0.0151183
0.0153375
0.0154681
0.0155236
0.0155355
0.0155155
0.0155
0.0155098
0.0148729
0.0151983
0.0154067
0.0155215
0.0155664
0.015573
0.0155484
0.0155123
0.0155057
0.0155157
0.0151376
0.0153443
0.0154524
0.0155051
0.0155136
0.0154827
0.0154341
0.0154033
0.0154197
0.0154539
0.0155161
0.015471
0.0154593
0.015461
0.0154539
0.0154052
0.0153144
0.0152279
0.0152324
0.0152855
0.015968
0.0159558
0.016391
0.0166558
0.0166427
0.0165085
0.0162076
0.0158346
0.0153512
0.0149188
0.0146787
0.0145548
0.0147934
0.0151173
0.0152215
0.0151858
0.01507
0.0148626
0.0146296
0.014435
0.0139938
0.0139637
0.0141307
0.0144195
0.0145955
0.0146349
0.0146235
0.0145618
0.0145064
0.014422
0.0136769
0.0137364
0.0139811
0.0142508
0.0144494
0.0145491
0.0145796
0.0145726
0.0145642