/*--------------------------------*- C++ -*----------------------------------*\
  =========                 |
  \\      /  F ield         | OpenFOAM: The Open Source CFD Toolbox
   \\    /   O peration     | Website:  https://openfoam.org
    \\  /    A nd           | Version:  9
     \\/     M anipulation  |
\*---------------------------------------------------------------------------*/
FoamFile
{
    format      ascii;
    class       volScalarField;
    location    "80";
    object      f15.gas;
}
// * * * * * * * * * * * * * * * * * * * * * * * * * * * * * * * * * * * * * //

dimensions      [0 0 0 0 0 0 0];

internalField   nonuniform List<scalar> 
137980
(
0.00599569
0.00599068
0.00616742
0.00655011
0.00697273
0.00739346
0.00778325
0.00831131
0.00886431
0.0103438
0.00592565
0.0059255
0.00617933
0.00663078
0.00715137
0.00766982
0.00814627
0.0086471
0.00943699
0.0101708
0.00584587
0.00584512
0.00611654
0.00663025
0.00721628
0.00780161
0.00841965
0.00893828
0.00965832
0.010122
0.00572134
0.0057342
0.00600507
0.00651155
0.00715893
0.00782372
0.00851387
0.00916812
0.00969679
0.010084
0.00558829
0.00560642
0.00584105
0.00629958
0.00695222
0.00768952
0.00844254
0.00914526
0.0096659
0.00996143
0.0054902
0.0054925
0.00565687
0.00601803
0.00657383
0.00730917
0.00815453
0.00895294
0.00952968
0.00978178
0.00548457
0.00545855
0.00551909
0.0057421
0.00615229
0.00671678
0.00743633
0.008289
0.00904361
0.0094181
0.00567551
0.00550092
0.00548524
0.00556809
0.00580865
0.00620607
0.00669751
0.00724913
0.00779653
0.00828029
0.00604972
0.0057152
0.00553897
0.00553067
0.00559769
0.00586762
0.00625404
0.0067284
0.00722774
0.00753999
0.0063284
0.0059795
0.0057119
0.00558088
0.00554559
0.00560665
0.00586829
0.00634576
0.00681691
0.00737952
0.00603089
0.00605014
0.00627081
0.00671148
0.0072432
0.00789834
0.00882036
0.00909421
0.00859884
0.0106153
0.00596927
0.00600639
0.00632315
0.00685218
0.00750697
0.00836231
0.00945021
0.00974948
0.00937042
0.0109048
0.00588357
0.00594119
0.00630813
0.00690442
0.00762976
0.00864044
0.0100513
0.010526
0.0103201
0.0114184
0.00575821
0.00582906
0.0061951
0.00681656
0.00764763
0.00873866
0.0104389
0.0113751
0.0113977
0.0118629
0.00563334
0.00569248
0.00601249
0.00659817
0.00746152
0.00861079
0.0102352
0.0117718
0.0122015
0.0122503
0.00557246
0.00559441
0.00579381
0.00627428
0.00705933
0.00820224
0.00973753
0.0116046
0.0123464
0.0125798
0.00565343
0.00559638
0.00563685
0.00592904
0.00653578
0.0074495
0.00878263
0.0107378
0.0120636
0.0125057
0.00616069
0.00575358
0.00565624
0.00570227
0.00606195
0.00670866
0.00761433
0.00886179
0.0105932
0.011864
0.00700885
0.00625798
0.00583325
0.0056824
0.00575942
0.00619168
0.00683487
0.00767335
0.0086333
0.0095562
0.00716947
0.00664553
0.00617364
0.00580142
0.00566948
0.00579845
0.00620473
0.00690214
0.00776082
0.00796192
0.00604464
0.00610238
0.00639078
0.00691755
0.00765254
0.00890319
0.0102146
0.00942604
0.00855918
0.0109681
0.00599397
0.0061003
0.00651714
0.00720395
0.00819344
0.00986944
0.010891
0.0100676
0.00915564
0.0111105
0.00592344
0.00607301
0.00655946
0.0073488
0.00856767
0.010679
0.0116606
0.0109286
0.00981388
0.0114109
0.00581244
0.0059913
0.00650333
0.0073705
0.0087358
0.0111565
0.0123668
0.0119966
0.0108506
0.011723
0.00573158
0.00586869
0.00633414
0.00719336
0.00865058
0.0112958
0.0129549
0.0128787
0.0119814
0.012206
0.00574734
0.00578325
0.00608517
0.00683126
0.0082049
0.0107883
0.0133966
0.0138039
0.0127784
0.012813
0.00604633
0.00584581
0.00590041
0.00638396
0.00750502
0.00961237
0.0131316
0.0143159
0.0140809
0.0132474
0.00700647
0.00613993
0.00591
0.00605802
0.00678515
0.00832012
0.0115119
0.0139754
0.0145588
0.0142112
0.00801486
0.00700845
0.00621491
0.00597564
0.00627225
0.00731765
0.00922278
0.0126021
0.0139717
0.0142643
0.00803635
0.00741942
0.00682303
0.00603493
0.00601377
0.00658698
0.00790373
0.00979246
0.0112928
0.0110349
0.0060931
0.00625002
0.00669572
0.00743536
0.00881401
0.0114507
0.0111706
0.00941268
0.00912429
0.0138512
0.00608701
0.00636952
0.00703525
0.00819203
0.010712
0.0122914
0.0114062
0.00998555
0.00977679
0.0144573
0.0060634
0.00642698
0.00724066
0.0087022
0.011662
0.0129633
0.0121292
0.0106259
0.0103202
0.0148912
0.00601352
0.00642473
0.00730817
0.00892965
0.0121665
0.0136153
0.0130755
0.0113874
0.01083
0.0150618
0.00599095
0.00633795
0.00718709
0.00886248
0.0122848
0.0141759
0.0140091
0.0121461
0.0113317
0.0149442
0.0060432
0.00624838
0.00688565
0.00841334
0.0117992
0.0145809
0.0148369
0.0130566
0.0120872
0.0144747
0.00634075
0.00625064
0.0065938
0.00774245
0.0106146
0.0145329
0.0154673
0.0142396
0.0131579
0.0142415
0.0072007
0.00650518
0.00647649
0.00714707
0.00923575
0.0138549
0.015564
0.0155912
0.0142537
0.0145724
0.008118
0.00715606
0.00663951
0.00677322
0.00812802
0.0119648
0.0152474
0.0159245
0.0156238
0.0153502
0.00820104
0.00756926
0.00703202
0.00664271
0.00739976
0.0102143
0.0139899
0.0152975
0.0154482
0.0145704
0.00639921
0.00688672
0.00812985
0.0100458
0.011484
0.0113564
0.00973841
0.0091098
0.0131373
0.0179907
0.00663568
0.0075837
0.0100347
0.01198
0.0123814
0.011337
0.0102202
0.010307
0.0158398
0.0180599
0.00680995
0.00809464
0.0111062
0.0128155
0.0130139
0.0117852
0.011233
0.0122508
0.0167677
0.0173282
0.0069247
0.00831225
0.0115658
0.0135054
0.0137665
0.0127544
0.0123674
0.0138259
0.017031
0.016854
0.00697778
0.00828074
0.0113802
0.0139171
0.0144307
0.0137352
0.0133805
0.0146377
0.0172676
0.0172536
0.00696683
0.00797754
0.0105915
0.0139755
0.0149525
0.0146295
0.0142504
0.0147138
0.0172832
0.0181036
0.00705069
0.00759734
0.00942984
0.0135763
0.0153571
0.0155865
0.0149213
0.0148835
0.0170609
0.0182432
0.00745927
0.00744372
0.00857136
0.0119914
0.0152621
0.0162363
0.0157605
0.0153847
0.0167211
0.0180202
0.00798748
0.00761729
0.0079966
0.00997814
0.0145487
0.0163753
0.016871
0.0164302
0.0170043
0.0180134
0.00812322
0.00782013
0.0078308
0.00893402
0.0130456
0.0160614
0.0171405
0.0174303
0.0176526
0.0182962
0.00861592
0.008835
0.00888526
0.0093491
0.0102332
0.00953068
0.00925877
0.0120293
0.0183012
0.0183592
0.0103819
0.0109923
0.0112028
0.0112041
0.0107461
0.0103733
0.0115189
0.0162226
0.0174429
0.0138467
0.011576
0.0122053
0.0123675
0.012097
0.0118574
0.0122682
0.015015
0.0160003
0.0144004
0.0100177
0.0122858
0.0131609
0.0133797
0.0133546
0.0134226
0.014513
0.0152337
0.0150857
0.0107724
0.00908465
0.0126755
0.0138883
0.0143581
0.0145068
0.0147263
0.0150741
0.0150964
0.0131976
0.00988813
0.00912201
0.01262
0.014397
0.0152039
0.0154292
0.0154798
0.0152737
0.0146407
0.0120891
0.0100451
0.00975555
0.0121138
0.0143096
0.0156816
0.0160694
0.0159598
0.0155254
0.0146134
0.0121397
0.0106375
0.0118012
0.0108807
0.0138528
0.0156177
0.0164488
0.0164806
0.0159424
0.0149035
0.0125909
0.0116528
0.0148511
0.0101329
0.0127643
0.0152118
0.0165185
0.0168854
0.0164388
0.0156359
0.0137182
0.012688
0.014954
0.00936649
0.011072
0.0142397
0.0163221
0.0171755
0.017394
0.0168297
0.0160069
0.0153088
0.0160373
0.00871315
0.00929242
0.00942669
0.00993345
0.0105129
0.0127277
0.016318
0.0169439
0.0148197
0.0139409
0.0105837
0.0106875
0.0108221
0.0115055
0.013648
0.0154087
0.0158111
0.0140609
0.0110704
0.0101542
0.0119022
0.0119107
0.0123459
0.0137573
0.0150065
0.0152031
0.0143507
0.0107452
0.00938937
0.00882492
0.0132204
0.0133162
0.0141805
0.0149687
0.015131
0.0146302
0.0118652
0.00939856
0.00873157
0.00852079
0.0145563
0.014785
0.0153688
0.01547
0.015022
0.0134856
0.0102202
0.00907542
0.00883044
0.00895045
0.015543
0.0158415
0.0159609
0.0156284
0.0146936
0.0121952
0.00983569
0.00928242
0.00958334
0.0116987
0.0161166
0.0163629
0.01633
0.015787
0.014562
0.0116006
0.0100739
0.00990335
0.0119121
0.0154506
0.016355
0.0166893
0.0166362
0.0160897
0.0147663
0.0118074
0.010597
0.0105894
0.0132378
0.0167855
0.0162274
0.0168302
0.0169261
0.0163859
0.015337
0.0124532
0.011195
0.0110513
0.013058
0.0164542
0.0159828
0.0168823
0.0170949
0.0169131
0.016285
0.014002
0.0126233
0.0120486
0.0132724
0.0158142
0.0140015
0.0140844
0.0134734
0.0131515
0.0124382
0.0118296
0.0112264
0.0108777
0.0107323
0.0107358
0.0131772
0.0129393
0.0122069
0.0119009
0.0111776
0.0104233
0.00984265
0.00949171
0.0092894
0.00920211
0.0129698
0.0124873
0.0119408
0.0114531
0.0104968
0.00977812
0.00935291
0.00909744
0.00900889
0.00897441
0.0131689
0.0126186
0.0120218
0.0110562
0.0099894
0.00946632
0.00925968
0.00925024
0.00952277
0.00981687
0.0137516
0.0130577
0.0122674
0.0109063
0.00996738
0.00962898
0.00973262
0.0109078
0.0120957
0.0125701
0.014535
0.0137688
0.0125868
0.0110311
0.010166
0.00997631
0.0104492
0.0120337
0.0136757
0.0145052
0.0153445
0.0146011
0.0131724
0.0113913
0.0103926
0.0100588
0.0102141
0.0116617
0.0140568
0.0151513
0.0159628
0.0154159
0.0138959
0.0120645
0.0107561
0.0100968
0.00987706
0.0104323
0.012805
0.0152947
0.0164622
0.0161108
0.0149143
0.0131461
0.0115165
0.0104061
0.00991665
0.0100573
0.0109703
0.0141779
0.0167849
0.016608
0.015838
0.0144635
0.0134711
0.0119107
0.0107676
0.0108977
0.0115226
0.0137206
0.0125651
0.0126375
0.0119114
0.0116215
0.011155
0.0109229
0.0106608
0.0105577
0.0105213
0.0106496
0.0120558
0.0118533
0.0111374
0.010847
0.0104838
0.0103519
0.0102767
0.0102408
0.0101505
0.0100558
0.0113211
0.0109011
0.0102398
0.0100144
0.0099429
0.00997573
0.0103339
0.0105926
0.0107383
0.0108245
0.011115
0.0100705
0.00954705
0.00937316
0.0093491
0.00976452
0.0105292
0.0112523
0.0118092
0.0120519
0.0114001
0.00986132
0.00910996
0.00881209
0.00874091
0.00915719
0.0101256
0.0114548
0.0122929
0.0126125
0.0122232
0.0102302
0.00917245
0.00849064
0.00824646
0.00832856
0.009226
0.0110025
0.0124332
0.0128432
0.0136249
0.0113244
0.0096287
0.00873947
0.0082314
0.00804252
0.00846875
0.00937502
0.0113221
0.0125688
0.0149601
0.0125772
0.0106663
0.00956908
0.00905296
0.00860728
0.00853776
0.00892468
0.0101687
0.0119589
0.015818
0.0140368
0.0124246
0.0113439
0.0111444
0.0105255
0.0099216
0.00993795
0.0102061
0.0117607
0.0162706
0.0150966
0.0137349
0.0136111
0.0139012
0.0126665
0.0118328
0.0118601
0.0121844
0.012887
0.0129055
0.0131029
0.0128577
0.0127094
0.0123806
0.0122028
0.0119651
0.0118595
0.0118194
0.0118962
0.011714
0.011835
0.0116463
0.0115517
0.011331
0.0112228
0.0110557
0.0109729
0.0108739
0.0108278
0.0109123
0.0107517
0.0105774
0.0105321
0.0105193
0.0105684
0.010677
0.0107226
0.0107777
0.0107985
0.0101269
0.00961733
0.00937058
0.00929347
0.00929575
0.00962822
0.0101332
0.0105812
0.0109828
0.0112243
0.0102041
0.00914603
0.00858516
0.00832147
0.00823045
0.00840344
0.00909594
0.0100082
0.0109508
0.0113584
0.0106884
0.00949187
0.00849714
0.00788744
0.00767385
0.0076555
0.00796941
0.00870677
0.0100772
0.0113054
0.0123308
0.0103779
0.00890547
0.00808422
0.00763039
0.00756125
0.00771881
0.00821948
0.00932506
0.0110332
0.013701
0.0117944
0.00974154
0.00862582
0.0081582
0.00815033
0.00825793
0.0085893
0.00923959
0.0108281
0.0142504
0.0128492
0.0109719
0.00956717
0.00965559
0.00988595
0.00988595
0.0100465
0.0104159
0.0114175
0.0143871
0.0128839
0.0113343
0.0111635
0.0120889
0.0121679
0.0117846
0.011819
0.011905
0.012149
0.0149606
0.0157261
0.0158446
0.015868
0.0155976
0.0152902
0.0148185
0.0143666
0.0140908
0.0137951
0.0135171
0.0137177
0.0136917
0.0134858
0.0132332
0.0128716
0.0124814
0.0120711
0.0118147
0.01148
0.0128436
0.012968
0.0129207
0.0127375
0.0124193
0.0121258
0.0117304
0.0113678
0.0110734
0.0107107
0.0116372
0.0116457
0.0116543
0.0116676
0.0115749
0.0114432
0.0112369
0.0110524
0.0107504
0.0104405
0.0107635
0.0103728
0.010207
0.0101484
0.0101293
0.0101594
0.010238
0.0102921
0.0101381
0.0100103
0.0104283
0.0098844
0.00928516
0.00898795
0.00881847
0.00872943
0.00876501
0.00899149
0.00908018
0.00923913
0.0112202
0.0102429
0.00925451
0.00859024
0.00820263
0.00802894
0.00800312
0.00812868
0.00823696
0.00865526
0.0127515
0.011163
0.00973173
0.00878959
0.00827826
0.00809456
0.00804211
0.00806731
0.00817709
0.00856945
0.0133221
0.0126696
0.0108321
0.00933171
0.00882544
0.00875828
0.00889053
0.0090417
0.0092397
0.00982074
0.0132867
0.0129186
0.011396
0.00996827
0.0100649
0.010346
0.0103082
0.01031
0.0103077
0.01059
0.0117567
0.0116381
0.0102077
0.00957127
0.00928856
0.00922349
0.00950681
0.010372
0.0127143
0.0164987
0.0141473
0.0127036
0.0115785
0.0107861
0.0105252
0.0107865
0.0122731
0.0138835
0.0146359
0.0148098
0.0150092
0.01463
0.0138467
0.0133034
0.0131564
0.0135374
0.013785
0.0138435
0.0132631
0.0112852
0.0150314
0.0149813
0.014679
0.0143503
0.0140051
0.0138608
0.0135766
0.0127438
0.01089
0.0101545
0.0142842
0.0146885
0.0146291
0.0143853
0.014082
0.0136455
0.0127339
0.011087
0.0101822
0.00975176
0.0132119
0.0139454
0.0140784
0.0140471
0.0137406
0.0130175
0.0117603
0.0104671
0.009895
0.00965048
0.0129209
0.0129762
0.0132827
0.0132826
0.0131004
0.0123733
0.011062
0.00979093
0.00934706
0.00929607
0.0133017
0.0124638
0.0124486
0.0125009
0.0124548
0.012077
0.0111367
0.00984691
0.00915208
0.00903476
0.0137678
0.0127128
0.0120596
0.0117283
0.0115866
0.0114563
0.0111792
0.0102439
0.00940638
0.00939773
0.013347
0.0132244
0.0118156
0.0112471
0.0113537
0.0114406
0.0113406
0.0109736
0.0101499
0.00983803
0.0170109
0.0168415
0.0163094
0.0156771
0.0153019
0.0158145
0.0150144
0.0128133
0.0113534
0.00999509
0.0159654
0.0154821
0.0151904
0.0147347
0.0144402
0.0145482
0.0152727
0.0151184
0.0143152
0.0125552
0.0150305
0.0150273
0.0149141
0.0145536
0.0143448
0.0144489
0.0149041
0.0155731
0.0151786
0.0134894
0.0143193
0.0145545
0.014402
0.0140463
0.0140411
0.0142658
0.0148644
0.0153826
0.014812
0.0130785
0.0140555
0.0143354
0.0140504
0.0138402
0.013902
0.0141719
0.0145983
0.0146778
0.0138158
0.0124031
0.0139468
0.0139193
0.0134848
0.0134481
0.0136488
0.0139268
0.0140768
0.0140155
0.0130971
0.0121753
0.0138446
0.0136624
0.0131971
0.0130634
0.0132384
0.0135173
0.0136182
0.0134775
0.0128626
0.012143
0.0135863
0.013488
0.0130146
0.0126435
0.012695
0.0129576
0.0132201
0.0132359
0.0127361
0.0120236
0.0130168
0.0132997
0.0129251
0.0124294
0.0122524
0.0123305
0.0125725
0.0128023
0.0123458
0.0118632
0.0122993
0.0128856
0.0127346
0.0123292
0.0121372
0.012098
0.0122577
0.0125617
0.0121619
0.0116275
0.0179498
0.01698
0.0167802
0.01643
0.0156083
0.0147138
0.0141588
0.0141383
0.014255
0.0147204
0.0158185
0.0156495
0.0155608
0.0152607
0.0145279
0.0137489
0.0133302
0.0133356
0.0135156
0.0135413
0.0149685
0.0151351
0.0150921
0.0147311
0.0138991
0.0131322
0.0126257
0.0126558
0.0128857
0.0130346
0.0146279
0.0148917
0.0146229
0.0137301
0.0127558
0.0121596
0.0120862
0.0122392
0.0126176
0.0127902
0.0145101
0.0145402
0.0139517
0.0128448
0.0121368
0.0118382
0.0119343
0.0122112
0.0126082
0.0126781
0.0143129
0.0141898
0.0132389
0.0123299
0.0117774
0.0117033
0.0119162
0.0123354
0.0125575
0.0126196
0.0140558
0.01389
0.012885
0.0120574
0.0116138
0.0116197
0.0120324
0.0124403
0.0125257
0.01252
0.0137329
0.013608
0.012708
0.0119457
0.0115459
0.0115763
0.0121294
0.0125296
0.012552
0.012509
0.013449
0.0133876
0.0126296
0.0119438
0.0116334
0.0116614
0.0122005
0.0126922
0.0128403
0.0128976
0.0132526
0.0131868
0.0125366
0.0121363
0.0120278
0.0122607
0.0126837
0.0128596
0.0128119
0.0122899
0.0154149
0.0151002
0.0141126
0.0132112
0.0126482
0.012043
0.0116128
0.0117606
0.0124667
0.0129136
0.0152823
0.0149004
0.013765
0.0125682
0.0116929
0.0110447
0.01081
0.010905
0.011349
0.0115648
0.0146929
0.014117
0.0127788
0.0114454
0.0104174
0.00986228
0.00984166
0.0100078
0.0104877
0.0107616
0.0144487
0.0137413
0.0123013
0.0107041
0.00975027
0.00938818
0.00940632
0.0095716
0.0100334
0.0104849
0.0140298
0.012996
0.0116171
0.0102185
0.00951586
0.00926357
0.00929886
0.00947872
0.00988878
0.0105684
0.0137358
0.0126444
0.0113352
0.0100841
0.00948104
0.00928465
0.00932492
0.00954081
0.00997465
0.0106716
0.0133597
0.012274
0.0112251
0.0101105
0.00974671
0.00964881
0.00960103
0.0097118
0.01012
0.0109057
0.0131806
0.0121148
0.0112219
0.0105445
0.0103487
0.0103428
0.0102232
0.0101524
0.0103162
0.0110575
0.0131086
0.0120509
0.0113935
0.011006
0.0110071
0.0112476
0.011246
0.0111592
0.0111256
0.011492
0.013099
0.01204
0.0115423
0.0113491
0.0115355
0.0117761
0.0118124
0.0116
0.0113202
0.0109964
0.0139525
0.0125677
0.0117224
0.0109732
0.0105375
0.0101279
0.00986987
0.0101419
0.0110054
0.0122595
0.0140332
0.0126246
0.01154
0.0105953
0.00997434
0.00955518
0.00935539
0.00945413
0.00990843
0.0100202
0.0135119
0.0120266
0.0109999
0.0101421
0.00960888
0.00921685
0.00898093
0.00900659
0.00921627
0.00936844
0.0132777
0.0117846
0.0107836
0.0099803
0.00949952
0.00912602
0.00887437
0.00879116
0.00886755
0.00907214
0.0127994
0.0113494
0.0105219
0.00992531
0.00948773
0.00914297
0.00887995
0.0087357
0.00877816
0.00908653
0.0125677
0.0111495
0.0104138
0.00993472
0.0096483
0.0093877
0.00909259
0.00883013
0.00884295
0.00930153
0.0122362
0.010879
0.0103487
0.0101081
0.0100085
0.00983781
0.00952084
0.00913968
0.00903335
0.00955197
0.0120807
0.010761
0.0103306
0.0103349
0.0104474
0.0104069
0.0101122
0.00971611
0.00944058
0.00960193
0.0120178
0.0106802
0.0103266
0.0105011
0.0107347
0.0107349
0.0104797
0.0102259
0.0102547
0.0102957
0.0120514
0.0106353
0.0103336
0.0106364
0.0108784
0.0108756
0.0105793
0.0103157
0.0100376
0.00959155
0.0155465
0.015334
0.0147513
0.013813
0.0132184
0.0127488
0.0126147
0.0124455
0.0118644
0.0103064
0.015465
0.015302
0.0148194
0.0137503
0.0129729
0.0124707
0.0120058
0.0117241
0.0111352
0.010587
0.0149703
0.0149235
0.014792
0.0137525
0.0129169
0.0122704
0.0116104
0.0111101
0.0105218
0.00967361
0.0146938
0.0146434
0.014774
0.0139819
0.0129853
0.0121858
0.0112987
0.0105625
0.00979305
0.00882532
0.0142884
0.0141557
0.0146247
0.0141619
0.0131343
0.0121616
0.0111107
0.0102809
0.00945367
0.00845752
0.0141407
0.01358
0.0144381
0.01424
0.0132952
0.0122736
0.0110733
0.0101811
0.00933196
0.00837237
0.0141294
0.0128442
0.014156
0.0142629
0.0134146
0.0124995
0.0112641
0.0102427
0.00951464
0.00861274
0.0147036
0.0120694
0.0136939
0.0142575
0.0134742
0.0127427
0.0116677
0.0105795
0.00987122
0.0092262
0.0154203
0.0115885
0.0128225
0.01412
0.0135051
0.0128982
0.0122673
0.0111016
0.0102698
0.00984126
0.0156841
0.0113561
0.0117958
0.0137999
0.0135065
0.0129516
0.0126419
0.0123116
0.0118855
0.0115494
0.0171827
0.0147565
0.0140086
0.0135858
0.0131878
0.012802
0.0121559
0.0113998
0.0111721
0.0115055
0.0170223
0.0149087
0.013969
0.0135095
0.013061
0.012571
0.011834
0.011083
0.0109867
0.011038
0.0172216
0.0146397
0.0135566
0.0132799
0.0129405
0.0124964
0.0117044
0.0109305
0.0105772
0.0103049
0.0172875
0.0145063
0.013305
0.0131593
0.0129049
0.0124817
0.0116431
0.0107604
0.0102119
0.00999762
0.0170941
0.0140122
0.0128272
0.0128965
0.0129007
0.0125311
0.0116253
0.0106603
0.0100174
0.00957197
0.0166051
0.0135127
0.0124956
0.012726
0.0129258
0.0126807
0.0116928
0.0105821
0.00983243
0.00912355
0.0163264
0.0129398
0.0120825
0.0124852
0.0129412
0.0127948
0.0118816
0.010553
0.00980024
0.00912332
0.0159029
0.0125043
0.0117523
0.0123262
0.0129007
0.0128151
0.0120202
0.0107161
0.0100814
0.00962215
0.0157377
0.0122316
0.011381
0.012075
0.0127532
0.0127198
0.0120259
0.0107448
0.010097
0.00955861
0.0157005
0.0120861
0.0110808
0.0118578
0.0124356
0.0124329
0.0118949
0.0106458
0.00976819
0.00930915
0.0146925
0.0131484
0.0123681
0.0120268
0.0118125
0.0116486
0.0116995
0.0122657
0.0124976
0.0127621
0.0146465
0.0133482
0.0127992
0.0124273
0.0121811
0.0120628
0.0120958
0.0124626
0.0126244
0.0128562
0.0151324
0.0136554
0.0131267
0.012769
0.0125674
0.0124865
0.0126046
0.0128711
0.0129922
0.0130644
0.0159241
0.0140955
0.0134578
0.013152
0.0130021
0.0129694
0.0130429
0.0130821
0.0129775
0.0126026
0.0167585
0.0145575
0.013791
0.0134775
0.0133172
0.0132558
0.0131795
0.0130669
0.0127925
0.0119372
0.0172909
0.0151404
0.0140807
0.0137013
0.0135052
0.0133667
0.0132131
0.0129897
0.012395
0.0118114
0.0176308
0.0157679
0.0143474
0.0138552
0.0136151
0.0134234
0.0132458
0.0128173
0.0121692
0.0117437
0.0176592
0.0165436
0.0148007
0.0140719
0.0137623
0.0135187
0.0132769
0.0127697
0.0120837
0.0115016
0.0173719
0.0168939
0.0155808
0.0144616
0.0140182
0.0136402
0.0133546
0.0127847
0.0119874
0.0115012
0.0166484
0.0167941
0.0158605
0.0147145
0.0142523
0.013911
0.0135795
0.0129363
0.0120231
0.0119702
0.00950969
0.00969483
0.0087404
0.00831578
0.00793319
0.00786419
0.0081517
0.00873736
0.00925387
0.0100857
0.00989251
0.00967271
0.00870133
0.00832478
0.0081018
0.00811614
0.00840643
0.00905873
0.00965675
0.0106807
0.0105041
0.00973308
0.00890008
0.0085624
0.00845569
0.00847764
0.00883226
0.0094182
0.0105395
0.0110674
0.0110666
0.00997501
0.00930468
0.00903103
0.00889661
0.00884823
0.00928408
0.0102902
0.0109412
0.0105805
0.011343
0.0102403
0.00972398
0.00953618
0.00940475
0.00952184
0.0101744
0.0107927
0.0109028
0.00990011
0.011509
0.01043
0.00997613
0.00987328
0.00995804
0.0101596
0.0107404
0.011097
0.0108093
0.00928228
0.0116325
0.0107402
0.0104053
0.0103543
0.0104463
0.0106998
0.011192
0.0112505
0.0106751
0.00921309
0.0118123
0.0110909
0.0107495
0.0107154
0.0108223
0.0112157
0.0114421
0.0113921
0.0107394
0.00926638
0.0122487
0.0117914
0.0113378
0.0111999
0.0111827
0.0114244
0.0117622
0.0116826
0.0110068
0.00935539
0.0124459
0.0121206
0.0118091
0.0116052
0.0115671
0.0116582
0.011896
0.0119788
0.0113551
0.0096422
0.0046919
0.00511826
0.00540683
0.00616285
0.00745575
0.00743092
0.00776579
0.00757249
0.00494145
0.00450463
0.00520325
0.00564825
0.00612812
0.00646559
0.00737797
0.00750733
0.00788357
0.00782251
0.00558158
0.00455966
0.00560752
0.00579545
0.00608487
0.00704288
0.00736036
0.00738859
0.00773158
0.00761572
0.00575658
0.00443895
0.00609905
0.00614123
0.00674843
0.00706624
0.00711309
0.00721823
0.00751745
0.00734454
0.00613568
0.00469342
0.00575095
0.00703761
0.00699206
0.00695778
0.00699301
0.00696096
0.00678654
0.0065814
0.00603257
0.00534614
0.00585899
0.00670667
0.00663939
0.00661167
0.00646849
0.006369
0.00611229
0.00598201
0.00551483
0.00515158
0.00581499
0.00640083
0.00635166
0.00633012
0.00622745
0.00596996
0.0060058
0.00587552
0.00535058
0.00482299
0.00556187
0.00655071
0.0064789
0.00645722
0.00649088
0.00632469
0.00619655
0.00553708
0.00505251
0.00464119
0.00532287
0.0063517
0.00630158
0.00635178
0.0064909
0.00647264
0.00619989
0.0054551
0.00490291
0.00451971
0.00532728
0.00579189
0.00587145
0.00615029
0.00632266
0.00629609
0.00591228
0.00529209
0.00508621
0.00460737
0.00437527
0.00453398
0.00456337
0.00452725
0.00431517
0.00392581
0.00357182
0.00343082
0.00337333
0.00334884
0.00444097
0.00452225
0.00451998
0.00436826
0.00403794
0.00363886
0.00347603
0.00341737
0.0033924
0.00333216
0.00446416
0.00450272
0.00446745
0.00421856
0.00384946
0.00353753
0.00343997
0.00339796
0.00333919
0.00333034
0.00445449
0.00446026
0.00436153
0.00410041
0.00375671
0.00351348
0.00342839
0.00335437
0.00333266
0.00333733
0.00443486
0.0044304
0.00429898
0.00404256
0.0037665
0.00353288
0.00344773
0.00336788
0.00338062
0.00341667
0.00440138
0.00437069
0.00421325
0.00401564
0.00380897
0.00361261
0.00348593
0.00348854
0.00348098
0.00345478
0.0043473
0.0043046
0.00414689
0.00396998
0.00385226
0.00375804
0.00365938
0.00361024
0.0035087
0.00342547
0.00431027
0.00422037
0.0039784
0.00349007
0.00355316
0.00362766
0.00361346
0.00357458
0.00336638
0.00331694
0.00423994
0.00384954
0.00337796
0.00327305
0.00325873
0.00334213
0.0033528
0.00334636
0.00328396
0.00325054
0.00414651
0.00372494
0.00331327
0.00329712
0.00327608
0.00332682
0.00331394
0.00321214
0.00305845
0.00298168
0.00520461
0.00527879
0.00530584
0.00531204
0.00525547
0.00512995
0.00489382
0.004505
0.00408714
0.00388065
0.00514911
0.00516858
0.00514231
0.00506235
0.0048976
0.00460599
0.00419466
0.00384239
0.00355352
0.00341324
0.00497445
0.00491095
0.00478698
0.00455108
0.00426233
0.00390885
0.00359754
0.00336894
0.00325781
0.00321609
0.00459319
0.0044923
0.00419703
0.00395144
0.00366126
0.00337601
0.00320723
0.00313188
0.00311044
0.00314763
0.00406058
0.00391209
0.00360709
0.00343991
0.00317843
0.00305063
0.0029697
0.00294673
0.00295079
0.0030229
0.00367877
0.00348353
0.00324115
0.00312373
0.00295031
0.00287836
0.00279995
0.0027896
0.0028076
0.00288182
0.00324446
0.00302622
0.0028582
0.00271975
0.00265531
0.00265286
0.00267083
0.00267661
0.00272784
0.00281087
0.00288254
0.00277765
0.00263977
0.00257993
0.00256269
0.00254142
0.00258726
0.00261297
0.0026455
0.00266961
0.00279429
0.00266675
0.00260648
0.00258772
0.00257755
0.00252697
0.0025732
0.00257906
0.00260913
0.00261206
0.00282905
0.00268331
0.00260167
0.00259938
0.00259948
0.00252381
0.00251976
0.00256747
0.00257141
0.00239512
0.00303216
0.00286233
0.00285707
0.00285508
0.00286449
0.00293107
0.00300809
0.00307504
0.00315981
0.0033097
0.00302186
0.00281316
0.0028051
0.00281016
0.00284204
0.00292255
0.00298396
0.0030456
0.00315709
0.00336639
0.00308011
0.00281898
0.00276052
0.00277739
0.00281792
0.00288348
0.00293717
0.00299506
0.00312622
0.00338363
0.0032933
0.00292682
0.00278234
0.00273853
0.00275334
0.00279173
0.00284199
0.00292541
0.00303517
0.00317887
0.00370188
0.00326748
0.0029709
0.00281445
0.00275937
0.00273764
0.00274746
0.00283103
0.00289348
0.00289978
0.00391478
0.00361348
0.00330667
0.00302454
0.00283482
0.00272894
0.00267503
0.00269526
0.00269936
0.00262312
0.00395687
0.00374947
0.0035426
0.00325074
0.00297209
0.00277022
0.00263178
0.00253875
0.00249365
0.00241353
0.00389164
0.00374705
0.00359224
0.00338112
0.00310644
0.00284914
0.00263325
0.00245396
0.0023662
0.00231919
0.00373591
0.00367961
0.00356856
0.00342562
0.00318696
0.00293423
0.00267574
0.00244179
0.00232524
0.00228459
0.00343373
0.00344167
0.00342507
0.0033667
0.00323103
0.00298776
0.00273913
0.00247036
0.00231949
0.00227225
0.00708191
0.00724795
0.00746576
0.00788114
0.00820296
0.00851864
0.00911036
0.01035
0.0111274
0.0105415
0.00720137
0.00726524
0.00740972
0.00769406
0.00804767
0.00839778
0.0089197
0.00986444
0.0108647
0.0104017
0.00783242
0.00753517
0.00751129
0.0076686
0.00794895
0.00829818
0.00881417
0.00968997
0.0107359
0.0104142
0.00861695
0.0081688
0.00791838
0.00784367
0.00798142
0.00830745
0.00883244
0.00974743
0.0107387
0.010476
0.00933516
0.00887037
0.0084749
0.0082798
0.00829976
0.00855769
0.00922043
0.0101046
0.0107911
0.0105431
0.0108919
0.0102795
0.00968227
0.00928231
0.00933248
0.00961104
0.0102674
0.0109829
0.0109383
0.0106553
0.013087
0.0121687
0.011565
0.0112484
0.0112137
0.0113867
0.0113885
0.0112774
0.0109691
0.0106254
0.0127164
0.0122438
0.0120399
0.0117899
0.0115663
0.0113498
0.0112456
0.0110635
0.0107928
0.0104279
0.0109694
0.011002
0.0111129
0.011079
0.0110532
0.010937
0.0107469
0.0105661
0.0103339
0.0100068
0.00915481
0.00960323
0.0100057
0.0102585
0.0103234
0.0102291
0.0100763
0.00989107
0.0096381
0.00926013
0.00646359
0.0066362
0.0067746
0.00701898
0.00729733
0.00751395
0.00774564
0.00810776
0.00879368
0.00968552
0.00652675
0.00660013
0.00674521
0.0069701
0.00720247
0.00738442
0.00765238
0.00800878
0.00865916
0.00948551
0.00692429
0.00679461
0.00682148
0.0069569
0.00719744
0.0073987
0.00765342
0.00797701
0.00854034
0.00930049
0.0073918
0.00723449
0.00709894
0.00711893
0.00725298
0.00744848
0.00768035
0.00800935
0.00854462
0.00927663
0.00778016
0.00767717
0.0074825
0.00742386
0.00746332
0.00757848
0.00778624
0.00811974
0.00866445
0.00935392
0.00860685
0.00848542
0.0082668
0.00808362
0.00797529
0.00800478
0.00815059
0.00847767
0.00900161
0.00960551
0.0104321
0.0101901
0.00976297
0.00940534
0.00913083
0.0090398
0.00916933
0.00945269
0.00971876
0.00989657
0.0111638
0.0109308
0.0106205
0.0103746
0.0102074
0.0101077
0.0101136
0.0101205
0.0100468
0.00987044
0.0105626
0.010546
0.0105319
0.0104695
0.0104
0.0102886
0.0101499
0.0100401
0.00988297
0.00968307
0.00892962
0.0092791
0.0097017
0.00986594
0.00988163
0.00983627
0.00972958
0.00958712
0.00934972
0.00918469
0.00626253
0.00636776
0.00653702
0.0067083
0.00688876
0.0070889
0.00724001
0.00740462
0.0075975
0.00806479
0.00624336
0.00627825
0.00640606
0.00660457
0.00678434
0.00694295
0.00707686
0.00726242
0.00753115
0.00793156
0.00640631
0.00639944
0.006454
0.006593
0.0067797
0.00695311
0.00711574
0.00727405
0.00753796
0.00785577
0.00677995
0.00672533
0.00667201
0.00670956
0.00684348
0.00699973
0.00718582
0.0073538
0.00759157
0.00787432
0.00698431
0.00699077
0.0069655
0.00695485
0.00700229
0.00713791
0.00731715
0.00745424
0.00765647
0.00793377
0.00740476
0.0074826
0.0074953
0.00746034
0.00741816
0.00746529
0.00757626
0.00766759
0.00782587
0.0080743
0.00857985
0.00868124
0.00860855
0.00846774
0.00831621
0.00819645
0.00817127
0.00819302
0.00827182
0.00839534
0.00934267
0.00933874
0.00926334
0.00913065
0.00898819
0.00888628
0.00878417
0.00871788
0.008728
0.00874808
0.00930346
0.00930319
0.00925066
0.00917026
0.00909195
0.00902562
0.00893133
0.00885585
0.00880111
0.0087623
0.00851381
0.00851064
0.00864667
0.0087142
0.00875255
0.00879805
0.00877971
0.00873209
0.00860484
0.00864391
0.00629039
0.00638575
0.0065881
0.00673418
0.00687141
0.00698159
0.00706459
0.00716999
0.00721371
0.0073972
0.00611518
0.00614265
0.00627618
0.00646088
0.00662064
0.00674799
0.00681622
0.00690542
0.00704723
0.00721604
0.00616612
0.00617974
0.00626825
0.00642206
0.00656634
0.00671937
0.0068276
0.00691749
0.00707002
0.00720789
0.00640071
0.00640815
0.00642108
0.00650226
0.00663555
0.00677232
0.00690819
0.00702032
0.00719774
0.00731799
0.00656814
0.00659718
0.00666896
0.00673992
0.00682902
0.00692953
0.00705529
0.00714808
0.00728665
0.00740761
0.00678109
0.00691392
0.00706737
0.00717734
0.0072489
0.00728227
0.00734626
0.0074186
0.00747777
0.00752187
0.00738723
0.00771626
0.00788121
0.00790908
0.00789412
0.00784587
0.00777286
0.00774664
0.00774679
0.00772068
0.0080962
0.00829704
0.00833337
0.00831059
0.00824924
0.00816003
0.008075
0.00800008
0.00792533
0.00788728
0.00825042
0.00832778
0.00832547
0.00829969
0.00823396
0.00816187
0.0080983
0.00801485
0.00795358
0.00792145
0.00802834
0.0080057
0.00794021
0.007907
0.00789183
0.00788857
0.00789235
0.00787733
0.00783862
0.00785873
0.00643648
0.00651905
0.00676472
0.00690634
0.00702063
0.00709376
0.00712111
0.00711027
0.00704967
0.00705946
0.00612687
0.00614523
0.00630025
0.00649671
0.00662308
0.00668655
0.0067146
0.00673179
0.00677693
0.00680652
0.00604429
0.00606605
0.00618409
0.00634962
0.00648946
0.0066041
0.00667046
0.00671425
0.00677748
0.00682643
0.00613142