/*--------------------------------*- C++ -*----------------------------------*\
  =========                 |
  \\      /  F ield         | OpenFOAM: The Open Source CFD Toolbox
   \\    /   O peration     | Website:  https://openfoam.org
    \\  /    A nd           | Version:  9
     \\/     M anipulation  |
\*---------------------------------------------------------------------------*/
FoamFile
{
    format      ascii;
    class       volScalarField;
    location    "80";
    object      f16.gas;
}
// * * * * * * * * * * * * * * * * * * * * * * * * * * * * * * * * * * * * * //

dimensions      [0 0 0 0 0 0 0];

internalField   nonuniform List<scalar> 
137980
(
0.00377587
0.00378424
0.00394536
0.00426704
0.00460262
0.0049139
0.0051246
0.00538105
0.00573504
0.00683891
0.00372755
0.0037334
0.00394714
0.00432155
0.00472924
0.00511332
0.00537656
0.00560019
0.00607981
0.00664266
0.00367083
0.00367383
0.00389244
0.0043087
0.00477534
0.00520302
0.00560279
0.00582379
0.00618005
0.0065215
0.00358349
0.00359528
0.00380665
0.00420982
0.00472148
0.00520797
0.00568772
0.00604989
0.00627328
0.00650774
0.00349351
0.00350837
0.0036835
0.00404009
0.00455102
0.00509577
0.00563361
0.00608528
0.00636397
0.00650033
0.00342796
0.00342973
0.00354735
0.00382181
0.00424726
0.00479176
0.00541116
0.00596544
0.00630773
0.0064497
0.00342556
0.00340686
0.00344644
0.00361042
0.0039199
0.0043293
0.00485038
0.00546975
0.00598643
0.00623748
0.00356681
0.00343519
0.00342087
0.00347906
0.00365944
0.00394802
0.00429226
0.00467439
0.00505988
0.0053956
0.0038258
0.00359113
0.00345277
0.00344585
0.003501
0.00370384
0.00397778
0.00430429
0.00465534
0.00487342
0.00402128
0.00376651
0.00356361
0.00347203
0.00344729
0.00350621
0.00370142
0.00404599
0.00435713
0.00480103
0.00381563
0.00384094
0.00402885
0.00438057
0.00477754
0.00522894
0.00575215
0.00587098
0.00549755
0.00706507
0.00376942
0.00380609
0.00406285
0.00447073
0.00495568
0.00554727
0.00616392
0.00630264
0.00598513
0.00722974
0.00370598
0.003755
0.00404148
0.00450185
0.00503742
0.00574605
0.00660303
0.00685018
0.00665814
0.00757355
0.00361394
0.0036705
0.00395034
0.00442254
0.00503763
0.00580785
0.00692999
0.00743988
0.00736904
0.00784992
0.00352297
0.00356743
0.00380669
0.00424691
0.00488214
0.00570114
0.00679714
0.00774868
0.00796608
0.00802807
0.00347791
0.00349241
0.00363498
0.00398942
0.00456335
0.00538418
0.00645477
0.00765692
0.00811291
0.00825146
0.00353187
0.00348622
0.00351546
0.00372355
0.00416255
0.00480987
0.00575015
0.00709279
0.00794172
0.00821625
0.00388063
0.00358333
0.00352111
0.00355501
0.0038111
0.00426277
0.00487978
0.00573926
0.00692901
0.0077936
0.00449487
0.00394821
0.00363715
0.00353865
0.00359309
0.00389938
0.00433854
0.00489901
0.00555519
0.00618121
0.00459028
0.00422099
0.00386465
0.00361099
0.00352532
0.00362189
0.00390935
0.00439578
0.00496386
0.00512294
0.00382388
0.00387337
0.00409959
0.00450033
0.00504083
0.00593061
0.00680601
0.00601029
0.00542448
0.00728487
0.00378449
0.00386405
0.0041784
0.0046906
0.00540999
0.006566
0.00723807
0.00639865
0.00577247
0.00735324
0.00372843
0.0038357
0.00419812
0.00478111
0.00566179
0.007159
0.00781934
0.00699215
0.00616823
0.00751015
0.00364212
0.00376701
0.00413926
0.00477536
0.00576755
0.00750308
0.00834428
0.00778399
0.00686582
0.00768783
0.0035801
0.00366799
0.00399767
0.00461945
0.0056778
0.00759149
0.00874999
0.00847489
0.00770657
0.0079767
0.00358355
0.00360026
0.00380074
0.00432871
0.00531596
0.00720141
0.00904332
0.00922538
0.00828544
0.00838987
0.0038023
0.00363913
0.00366454
0.00398716
0.00477259
0.0063032
0.00884834
0.00965976
0.0092841
0.00867935
0.00455748
0.00386422
0.00367244
0.00375168
0.00423764
0.00530682
0.00760772
0.00937211
0.0096913
0.00935227
0.00537697
0.00456009
0.00392121
0.00370496
0.00387889
0.00458178
0.00590276
0.00829125
0.00925518
0.00939314
0.00533653
0.00485863
0.00440109
0.00376269
0.00372116
0.00408129
0.00496713
0.00626693
0.00726224
0.00705616
0.00384932
0.00395921
0.00428278
0.00482679
0.00586563
0.00785087
0.00743981
0.00607152
0.00581122
0.00954311
0.00383389
0.00402439
0.00450877
0.0053617
0.00725719
0.00841019
0.00746082
0.00633819
0.00622393
0.00995232
0.00380392
0.00405106
0.00463102
0.00572054
0.00796895
0.00888785
0.00788136
0.00675188
0.00656217
0.0103248
0.003753
0.00402852
0.00465876
0.00586945
0.00835511
0.00940463
0.00863788
0.00726398
0.00687373
0.0103503
0.00372894
0.00394613
0.00453788
0.0057794
0.00843728
0.00984587
0.00941957
0.00780502
0.00717192
0.0102141
0.00376058
0.00387285
0.0042923
0.00540458
0.00804484
0.0101436
0.0101665
0.00846081
0.00769625
0.00974932
0.00398976
0.00388113
0.00407523
0.00486959
0.00705417
0.0101028
0.0107382
0.00933183
0.00846219
0.00944064
0.00473085
0.0040844
0.00400773
0.00441991
0.00596924
0.00955706
0.0107974
0.0105372
0.00935293
0.00967053
0.00550355
0.00466173
0.00416361
0.0041705
0.00509958
0.00802328
0.0104857
0.0108695
0.0103907
0.0102244
0.00554909
0.00502378
0.00451616
0.00412348
0.00457028
0.00662136
0.0094694
0.0103292
0.0102465
0.00957228
0.00402879
0.00437228
0.00528033
0.00683536
0.00794095
0.00769727
0.00634141
0.00583043
0.00885517
0.0131797
0.00417454
0.00486248
0.00674848
0.00826916
0.00854298
0.00752408
0.00662925
0.00661975
0.0111293
0.0132682
0.00427301
0.00520724
0.0075394
0.00883318
0.00893294
0.00778832
0.00728355
0.00805282
0.012001
0.0127357
0.00432869
0.00534229
0.00786791
0.00931713
0.00943663
0.00846028
0.00813066
0.00935872
0.0123072
0.0123814
0.00435084
0.00527855
0.00767381
0.00963988
0.00997317
0.00919407
0.0088832
0.00997574
0.0124898
0.0127014
0.00433713
0.00502468
0.0070026
0.00967113
0.010398
0.00989202
0.00956648
0.00997146
0.0124597
0.0133341
0.00442003
0.00473787
0.00608688
0.00934671
0.0106703
0.0107047
0.0100671
0.0100205
0.0121793
0.0133679
0.00479931
0.00466911
0.00540579
0.00801724
0.0105986
0.0113151
0.0106903
0.0103477
0.0116376
0.0130832
0.00530408
0.00489677
0.0050058
0.00645178
0.0100432
0.0114447
0.011714
0.0112039
0.0118149
0.0128123
0.00546581
0.0050907
0.00497544
0.00564206
0.00878071
0.0112041
0.011971
0.0120972
0.0122652
0.0129007
0.0057171
0.0058734
0.00590425
0.00625817
0.00692358
0.00621224
0.00596187
0.00795604
0.0134165
0.0135851
0.00711674
0.00758133
0.00774999
0.00771625
0.00716921
0.0067768
0.00755896
0.0116385
0.0127854
0.0102084
0.00795371
0.00843007
0.0085391
0.00815875
0.00786811
0.00813586
0.0105533
0.0114869
0.0104493
0.00704653
0.0084645
0.00913205
0.0092798
0.00911496
0.00909105
0.00997923
0.0108067
0.0108234
0.00765362
0.00642144
0.00873929
0.0096557
0.0099607
0.0099981
0.0101342
0.010587
0.0107108
0.00940834
0.00696493
0.00646241
0.00864487
0.010008
0.0106103
0.0107409
0.0107744
0.0107431
0.0103823
0.00850576
0.00708747
0.00695464
0.00813071
0.00991815
0.0109691
0.0112842
0.0112052
0.0109687
0.0103401
0.00852741
0.00752087
0.00862304
0.00715299
0.0095311
0.0109131
0.0116248
0.0116527
0.0112988
0.0105089
0.00882017
0.00824047
0.0110831
0.00671174
0.00857738
0.010584
0.0116606
0.0119943
0.0116715
0.0109925
0.00957428
0.00894473
0.0109673
0.00622374
0.00731478
0.009798
0.0114948
0.0122851
0.0124786
0.011954
0.0112051
0.0106983
0.0114659
0.00566851
0.00609585
0.0061097
0.00641923
0.00676131
0.00844898
0.0116566
0.0123023
0.0108388
0.0102173
0.00718919
0.00716311
0.00716127
0.00748644
0.00911659
0.0108428
0.0112865
0.0101522
0.00779524
0.00708152
0.00813991
0.00808705
0.00825542
0.00924763
0.0104309
0.0106947
0.0102049
0.00748528
0.00648076
0.00609791
0.00915068
0.00914062
0.00966045
0.0103749
0.0105752
0.0103037
0.00828805
0.00645955
0.00602761
0.00593195
0.010198
0.010294
0.010727
0.0108258
0.0105509
0.00949263
0.00705643
0.00625175
0.0060978
0.00633892
0.011015
0.0112019
0.0112817
0.0110575
0.0103793
0.00852265
0.00679087
0.00641404
0.00680245
0.0088214
0.0115111
0.0116789
0.0116427
0.0112304
0.0103171
0.00806563
0.0070031
0.00695058
0.00888613
0.011984
0.0117225
0.0119801
0.0119282
0.0114778
0.010476
0.00825426
0.007458
0.00755481
0.0100104
0.0129991
0.0115967
0.0121394
0.012204
0.0117686
0.0109397
0.00875402
0.00790773
0.00787264
0.0096977
0.0126253
0.0114042
0.0122016
0.0124072
0.0122239
0.0117076
0.00992718
0.00896968
0.00859207
0.00969532
0.0118625
0.0098623
0.00993443
0.00947485
0.00925753
0.00877371
0.00829216
0.00786328
0.00762518
0.00753053
0.00758848
0.00918731
0.00900622
0.00844595
0.00821979
0.00769735
0.00714137
0.00670474
0.00648147
0.00638206
0.00635241
0.00900333
0.00863211
0.00822176
0.00785262
0.0071701
0.00664256
0.00637412
0.00624481
0.00621994
0.00624363
0.00918608
0.00874007
0.0083104
0.00758473
0.00686185
0.00653663
0.00641596
0.00648091
0.00685057
0.00716315
0.00968473
0.0090994
0.00856542
0.0075667
0.0069233
0.0067241
0.00699204
0.00816201
0.00921025
0.00962994
0.0103679
0.00974021
0.00886783
0.00771565
0.00720323
0.0071315
0.00773851
0.00919227
0.0105507
0.0112166
0.0110704
0.0104864
0.00938596
0.00807377
0.00743422
0.0072352
0.00752193
0.00888372
0.0108869
0.0117032
0.0116329
0.0111952
0.0100209
0.00864631
0.00771548
0.00725559
0.00710865
0.00768833
0.00977718
0.0118068
0.0121428
0.0117987
0.0109298
0.00949308
0.00830404
0.00747479
0.00712157
0.00725028
0.00804846
0.0107986
0.0125125
0.0122482
0.0116567
0.0105838
0.00989348
0.00867015
0.00773392
0.00780995
0.00828172
0.0102653
0.00868231
0.00871049
0.00815754
0.00794272
0.00762135
0.00747409
0.00736232
0.0073305
0.007349
0.00752771
0.00836513
0.00818053
0.00765852
0.00745503
0.00724613
0.00718007
0.00715871
0.00715588
0.00712786
0.00710349
0.00787985
0.00755402
0.00713457
0.00700852
0.00698835
0.00713783
0.00750778
0.00772874
0.00788917
0.00798953
0.00778305
0.0070188
0.00668303
0.00660054
0.0066796
0.00711576
0.00778676
0.00843206
0.00885465
0.009039
0.00806309
0.00689018
0.00637714
0.00620781
0.00619076
0.0066142
0.00751975
0.00867634
0.00929034
0.00949989
0.00884474
0.00719274
0.0064246
0.00594348
0.00578562
0.0059184
0.00674763
0.00832178
0.00942897
0.00968188
0.010128
0.00814338
0.00679678
0.00613225
0.00575937
0.0056182
0.0060279
0.00680578
0.00849959
0.00939554
0.011295
0.00925385
0.00764679
0.00679865
0.00642454
0.00606417
0.00604716
0.00635763
0.00737676
0.00881368
0.011996
0.0105721
0.00922723
0.00830753
0.00815786
0.0076753
0.00711413
0.00709322
0.00727993
0.00856897
0.0123264
0.0113864
0.0103487
0.0101731
0.0105293
0.00949682
0.00871671
0.00870083
0.00893291
0.00948059
0.00906765
0.0092035
0.00898732
0.00888157
0.00864527
0.00853052
0.00842259
0.00839088
0.00844358
0.00860095
0.00819518
0.00827371
0.008129
0.00806257
0.00792777
0.00786614
0.00779857
0.00776753
0.007754
0.00776873
0.00763685
0.00750714
0.0074074
0.00739453
0.00740891
0.00751784
0.00764305
0.00773041
0.00783391
0.00791644
0.00704821
0.00666053
0.00649361
0.00645593
0.00653363
0.00689542
0.00736014
0.00777684
0.00814255
0.0083281
0.00717029
0.00631508
0.00587041
0.00568709
0.00563736
0.00589035
0.00650686
0.00735617
0.00813077
0.00843151
0.00766195
0.00665287
0.00583921
0.005336
0.00517736
0.00517883
0.00546974
0.00614002
0.0073293
0.00833345
0.00919984
0.00751473
0.00621869
0.00553307
0.00515881
0.00510477
0.00524207
0.00567764
0.00661072
0.00807357
0.0104368
0.00881605
0.00699961
0.00602023
0.00562171
0.0056325
0.00572493
0.00598324
0.00650962
0.00785939
0.0109586
0.00978044
0.00813082
0.00685177
0.00695631
0.00716314
0.00711542
0.00721879
0.00749183
0.00831017
0.0110238
0.00974139
0.00838171
0.00826416
0.00906253
0.00913059
0.0087883
0.00881327
0.00883244
0.00895743
0.0107653
0.0113796
0.0114591
0.0114747
0.0112589
0.0110167
0.01067
0.0103517
0.0101886
0.010011
0.00961745
0.0097584
0.00968164
0.00950511
0.00930295
0.00904939
0.00877323
0.00851039
0.00837236
0.00817468
0.00909394
0.0091762
0.00910446
0.00894106
0.00867412
0.00847049
0.00818676
0.00795329
0.00777599
0.00756646
0.00816714
0.00816846
0.00818992
0.00821361
0.00815776
0.00806834
0.00792432
0.00778244
0.0075414
0.00737015
0.00749261
0.00716989
0.00705506
0.00703646
0.00706992
0.00716575
0.0072641
0.00732293
0.00715517
0.00705026
0.00726677
0.00682812
0.00631933
0.00608788
0.00598596
0.0059476
0.0060535
0.00629585
0.00634666
0.00639532
0.00798203
0.00716043
0.00636722
0.00581577
0.00550272
0.00537874
0.00538445
0.0055043
0.00560543
0.00592041
0.00945679
0.00799456
0.00678628
0.00603365
0.00562116
0.0054579
0.00542553
0.0054509
0.00554326
0.00584416
0.0100766
0.00946576
0.00779654
0.00651568
0.00609303
0.00606531
0.00620262
0.00633605
0.006484
0.00689761
0.0100587
0.00973263
0.00830148
0.00705914
0.0071517
0.00749284
0.00749183
0.00748735
0.00748446
0.0076315
0.00811246
0.00802762
0.00697043
0.00651913
0.00632548
0.00628155
0.00645638
0.00704469
0.0086932
0.0121531
0.0100543
0.00884368
0.00795586
0.00734086
0.00714641
0.00730987
0.008386
0.00983283
0.0106228
0.0108638
0.010768
0.0104435
0.00978151
0.00928178
0.00913852
0.00945276
0.00976242
0.0098564
0.00957958
0.00808495
0.0107882
0.010735
0.0104955
0.0101758
0.00989411
0.0097873
0.00961022
0.00904798
0.00771187
0.00718358
0.0101627
0.0105012
0.0104685
0.010275
0.0100036
0.0096467
0.00899598
0.00779623
0.00715673
0.00685439
0.00932604
0.00986098
0.0100115
0.0100029
0.00976495
0.00922782
0.008314
0.00736573
0.00693773
0.00674823
0.00913189
0.00908915
0.00935292
0.00939923
0.00927712
0.0087043
0.0077211
0.00680338
0.00649954
0.0064406
0.00965873
0.00875452
0.00865708
0.00870755
0.00872443
0.00848737
0.00777901
0.00681796
0.00631636
0.00621513
0.010212
0.00906354
0.00844297
0.00810704
0.00800712
0.0079706
0.00780873
0.00712343
0.00652722
0.00648996
0.0100121
0.00966264
0.00835097
0.00781541
0.00790469
0.00801758
0.0079609
0.00776033
0.0071474
0.0068119
0.012188
0.0120761
0.0118243
0.0114702
0.0112406
0.0116755
0.0108481
0.00883453
0.00754163
0.00668549
0.0114063
0.0111865
0.0110734
0.0108486
0.0106625
0.0107526
0.0113006
0.0110649
0.0102383
0.00857543
0.0107867
0.0109148
0.0109107
0.0107578
0.0106367
0.0107476
0.011106
0.0116386
0.011211
0.00959139
0.0102891
0.0106031
0.0105533
0.0103591
0.010396
0.0106232
0.0111141
0.0115272
0.0109432
0.00927397
0.0101194
0.0104459
0.0103095
0.0101728
0.0102122
0.0105071
0.01092
0.01097
0.0101429
0.00871697
0.0100535
0.0100896
0.00984533
0.00982859
0.0100018
0.0103302
0.0104989
0.0103945
0.00950558
0.00855224
0.00996615
0.009915
0.00962303
0.00947701
0.00968528
0.00999894
0.0101203
0.0099755
0.009362
0.00856824
0.00979963
0.00976002
0.00945947
0.00917525
0.00924404
0.00950966
0.00979227
0.00981126
0.00930725
0.00858031
0.00938422
0.00958584
0.00936913
0.00899268
0.00886048
0.00895816
0.00922856
0.00945915
0.00901583
0.00847973
0.00891207
0.00933101
0.00917385
0.00891021
0.00875782
0.00872159
0.00890124
0.00918698
0.00886344
0.00820507
0.0128232
0.0120474
0.0120087
0.0118855
0.0115057
0.0109443
0.0105437
0.0105388
0.0106285
0.0110304
0.0112873
0.0113119
0.0113988
0.0112989
0.0109676
0.0103702
0.0100162
0.0100043
0.0100894
0.0100986
0.0107533
0.0110432
0.0111568
0.010979
0.0104409
0.00985714
0.00946326
0.00948614
0.009666
0.00970819
0.0105447
0.0109463
0.010817
0.0102682
0.00953037
0.00908883
0.00903456
0.00915297
0.0094467
0.00946866
0.0104884
0.0106632
0.0103152
0.00952985
0.00907255
0.00882275
0.00891028
0.0091321
0.00941818
0.0094023
0.0103567
0.010403
0.0097894
0.00911325
0.00873869
0.00869886
0.00889211
0.00923061
0.00932193
0.00932674
0.0101748
0.0101894
0.00947103
0.0088688
0.00856583
0.00860566
0.00899467
0.00929077
0.00928555
0.00923385
0.00995299
0.00994933
0.00931267
0.00875923
0.00849591
0.00855397
0.00905979
0.00934933
0.00930259
0.00922598
0.00975847
0.00979175
0.00925055
0.00875276
0.00854102
0.00859426
0.00907055
0.00945443
0.00951783
0.00948353
0.00966181
0.00968565
0.00922541
0.00893036
0.00888297
0.00911378
0.00942806
0.00953623
0.00937923
0.00877408
0.0111395
0.0110122
0.0104188
0.00976334
0.00937878
0.00894741
0.00864664
0.00876773
0.00941773
0.00979326
0.0109702
0.010802
0.0101339
0.00927177
0.00863162
0.00816797
0.00797237
0.00805956
0.00849236
0.00864621
0.0105384
0.010225
0.00937139
0.00837974
0.00761063
0.00717298
0.00715323
0.0072963
0.00771565
0.00798102
0.0103515
0.00994562
0.00900476
0.00783832
0.00708888
0.00679396
0.00681381
0.00695248
0.00734452
0.00775486
0.0100343
0.00939469
0.00849849
0.00746238
0.00690233
0.00670613
0.0067422
0.00689105
0.00724132
0.00780086
0.0098249
0.00914306
0.00829853
0.00736502
0.00688021
0.0067326
0.00677729
0.0069498
0.00733012
0.00787158
0.0095934
0.00889303
0.00822132
0.00740169
0.00712081
0.00705204
0.00702172
0.00711422
0.00744917
0.00806489
0.00949526
0.00879537
0.0082278
0.00777358
0.00763695
0.00763694
0.00756568
0.00750146
0.00758905
0.008169
0.00946998
0.0087687
0.00838571
0.00814238
0.00816363
0.00833339
0.00833882
0.00825578
0.00823924
0.00849425
0.0095381
0.00880983
0.00850954
0.0084011
0.00853963
0.00867055
0.00864798
0.00848642
0.00825294
0.00785973
0.0097186
0.0087276
0.00820765
0.00773105
0.00746582
0.00722848
0.00709439
0.00733019
0.00807543
0.00915119
0.0097452
0.00874413
0.00804338
0.00744429
0.00703982
0.0067658
0.00666024
0.00675119
0.00715112
0.00722453
0.00934136
0.00827672
0.00765524
0.00714508
0.00680505
0.00653568
0.00637546
0.00640076
0.00658147
0.0067028
0.00917012
0.00809715
0.00750405
0.00705166
0.00674611
0.00648091
0.00630169
0.00624933
0.00631076
0.0064954
0.00884725
0.00780834
0.0073449
0.00702712
0.00677034
0.00653163
0.00632405
0.00621614
0.00625812
0.00653338
0.00869599
0.0076809
0.00728868
0.0070841
0.00694809
0.00676507
0.00651407
0.00630333
0.00632821
0.00672431
0.00852431
0.0075564
0.0072672
0.00723755
0.00722692
0.00712073
0.0068649
0.00655771
0.00649459
0.00692894
0.00845415
0.00751654
0.00727007
0.0074229
0.00753835
0.00750834
0.00727565
0.0069954
0.00679417
0.00694659
0.00844055
0.00751047
0.00731569
0.00755189
0.00772156
0.00768804
0.00745603
0.00731546
0.00737982
0.00736901
0.00854037
0.00754889
0.00737358
0.00765636
0.00781551
0.0077457
0.00744987
0.0072369
0.00700031
0.00666002
0.0109271
0.0109162
0.0106325
0.00999157
0.00952898
0.00919675
0.00911491
0.00897297
0.00845076
0.00712735
0.0106967
0.0107512
0.0106444
0.0099113
0.00930081
0.00893893
0.00854692
0.00832016
0.00781264
0.00732584
0.0103191
0.0104001
0.0105154
0.00988635
0.00924041
0.00873081
0.00819963
0.00780094
0.00732143
0.00665342
0.0100493
0.0100934
0.0104464
0.00999234
0.00924169
0.00863006
0.00791984
0.00734322
0.00674154
0.00601779
0.00979782
0.00967108
0.0102656
0.0100574
0.00929863
0.0085916
0.0077588
0.007114
0.00648141
0.00577717
0.00971126
0.00918687
0.0100929
0.0100752
0.00938582
0.00862217
0.00772217
0.00703272
0.00639062
0.00572785
0.00981762
0.00862209
0.0098745
0.0100647
0.00942814
0.00878816
0.00785592
0.00707705
0.0065229
0.00589587
0.0105756
0.00811353
0.00946993
0.0100372
0.00944939
0.00894179
0.00818798
0.00738453
0.00685167
0.00631209
0.0112635
0.00787763
0.00876467
0.00994239
0.00946179
0.00903073
0.00862675
0.00783489
0.0072617
0.00693535
0.0115319
0.00777147
0.00811565
0.0097456
0.00946189
0.00905846
0.0088596
0.00867442
0.00844346
0.00831323
0.0129391
0.010592
0.0099665
0.00968464
0.00943026
0.00918094
0.00869447
0.00810217
0.00794323
0.00825423
0.0127781
0.0107103
0.00988469
0.00957455
0.00929594
0.00897413
0.00843044
0.00784265
0.00780853
0.00781764
0.0130121
0.0104687
0.00948884
0.00934456
0.0091761
0.00890284
0.00832684
0.0077169
0.00744906
0.00725345
0.0130923
0.0103564
0.00927288
0.0092256
0.00912438
0.00888762
0.00827998
0.0075822
0.00714917
0.00703729
0.0129825
0.00991134
0.00884833
0.00898345
0.00910955
0.00891932
0.00826596
0.00749878
0.00697147
0.00668454
0.0125495
0.00950517
0.00860072
0.00883968
0.00911397
0.00902594
0.00831801
0.007431
0.00679682
0.00627589
0.0123123
0.00903134
0.00826211
0.00864333
0.00911708
0.00909537
0.00846998
0.0074053
0.00676382
0.00626727
0.0119398
0.00869425
0.00803347
0.00853896
0.00907733
0.00909932
0.00855722
0.00754915
0.00701225
0.00664471
0.0117971
0.00852475
0.00777052
0.00836676
0.0089646
0.00899714
0.0085501
0.00756494
0.0070366
0.00662898
0.0117691
0.00844705
0.00759877
0.00824129
0.00872927
0.00875317
0.00840992
0.00743194
0.00676089
0.00648623
0.0110072
0.00965214
0.00903936
0.00876234
0.00856841
0.00842171
0.00847484
0.00896739
0.00922163
0.0094372
0.0108792
0.00979051
0.00935652
0.00906212
0.00885679
0.00875707
0.00880908
0.00914158
0.0092911
0.00942148
0.011154
0.00996916
0.0095678
0.00931933
0.00916004
0.00909928
0.00920018
0.00936883
0.00941839
0.0094104
0.0117312
0.0102469
0.00978658
0.00957599
0.00946362
0.00943435
0.00946124
0.00943259
0.00934835
0.00894642
0.0124158
0.0105326
0.0099683
0.00976732
0.00965934
0.00961147
0.00952738
0.00939239
0.00911301
0.00859628
0.0128975
0.0108918
0.0101054
0.0098664
0.00975299
0.00965742
0.00952284
0.00929478
0.00881512
0.00854631
0.0132724
0.0113397
0.0102381
0.00991299
0.00978668
0.00967774
0.00952694
0.0091394
0.00869068
0.0084843
0.0133088
0.0120536
0.0105254
0.0100189
0.00983861
0.00972004
0.00954791
0.0091367
0.00866648
0.00830111
0.0129729
0.0124634
0.0111241
0.0102608
0.00995985
0.00977513
0.00959936
0.009162
0.00864019
0.00831475
0.0121847
0.0123241
0.0114446
0.0104571
0.010118
0.00991549
0.00974244
0.00929469
0.0086581
0.00869263
0.0066793
0.00684683
0.00608397
0.00573613
0.0054041
0.00529782
0.005473
0.00588037
0.00630167
0.00691407
0.00692566
0.00686262
0.00605834
0.00573498
0.00549821
0.0054582
0.00564296
0.00611907
0.00655656
0.00726839
0.00738428
0.00690302
0.00617366
0.00586264
0.00572487
0.00571033
0.00594961
0.00637414
0.00717468
0.0076181
0.00782743
0.00701903
0.00641048
0.00615649
0.00601643
0.00596511
0.00625659
0.00701265
0.0075315
0.00734948
0.00805824
0.00715883
0.00668413
0.00650172
0.00638222
0.00642102
0.00689336
0.00741407
0.00751782
0.006872
0.00820817
0.00726268
0.00684224
0.00673548
0.00676823
0.0068919
0.00735902
0.00765794
0.00747349
0.00638084
0.00830357
0.00746397
0.00714127
0.00708036
0.00712535
0.00731953
0.00774123
0.00780902
0.00742861
0.00634314
0.00845111
0.00771415
0.0073812
0.00733379
0.00739795
0.00772946
0.0079544
0.00793568
0.00749164
0.00639621
0.00883713
0.0082985
0.00784469
0.00770252
0.00767068
0.00789195
0.00824559
0.00819153
0.00772329
0.00646944
0.00898121
0.00855183
0.00823427
0.00801419
0.00796395
0.00805505
0.00829931
0.00842816
0.00798185
0.00669038
0.00286327
0.00311747
0.00325416
0.00372358
0.00472253
0.00469278
0.0049847
0.00488036
0.00297574
0.00270835
0.00324171
0.00351111
0.00376534
0.00398973
0.00469773
0.00480496
0.00509865
0.00510431
0.00343556
0.00271153
0.00351488
0.00357028
0.00372055
0.00447571
0.00473631
0.00474675
0.00502489
0.00499053
0.00361101
0.00263636
0.00389186
0.00380658
0.004285
0.00456559
0.00459964
0.00466748
0.00493344
0.00484661
0.00394026
0.00285906
0.00367422
0.00456441
0.0045659
0.00454039
0.00456537
0.00455456
0.00445465
0.00429807
0.00388574
0.00333643
0.0037634
0.00436255
0.00434023
0.00434023
0.00423636
0.00416511
0.00395832
0.00383495
0.00347016
0.0031875
0.0037288
0.00412016
0.00408916
0.00408299
0.00401395
0.00382001
0.00384435
0.00373627
0.00331028
0.00299805
0.00354576
0.00423721
0.0041801
0.00418485
0.00421888
0.00408123
0.00398206
0.00346325
0.00311105
0.00287904
0.00338355
0.0040858
0.00404178
0.00409755
0.00422015
0.00418291
0.00396879
0.00340597
0.00300498
0.00276362
0.00336663
0.00367034
0.00373064
0.00393861
0.00407461
0.0040204
0.00373144
0.00327793
0.003122
0.00281417
0.00262098
0.00271799
0.00273298
0.00270424
0.00255577
0.00227893
0.00205654
0.00196793
0.00193217
0.00191684
0.00266603
0.00271367
0.0027089
0.00260109
0.00236412
0.00210061
0.00199804
0.00196216
0.00194769
0.00190723
0.00268444
0.00270425
0.00267604
0.00250093
0.00224024
0.00203848
0.00197671
0.00195102
0.00191134
0.00190599
0.00268014
0.00268231
0.00260958
0.00242356
0.00218226
0.00202498
0.00197118
0.00192074
0.00190767
0.0019133
0.00267137
0.00266493
0.00257101
0.00238824
0.00219064
0.00203833
0.00198491
0.00193302
0.00194155
0.00197098
0.0026531
0.00262989
0.00251885
0.00237523
0.00222393
0.00209377
0.00201118
0.00201665
0.00201472
0.00200128
0.00262268
0.00259028
0.00247765
0.00235345
0.00227058
0.00220651
0.00213856
0.00210627
0.00203898
0.00198448
0.00259997
0.00253618
0.00236829
0.00202552
0.0020702
0.00212086
0.00211157
0.0020863
0.00194535
0.00191061
0.00255666
0.00228077
0.00194531
0.00187064
0.00186115
0.00192291
0.00193408
0.00193569
0.00188402
0.00185912
0.00249164
0.0021918
0.00189765
0.00188719
0.00187347
0.00191262
0.00190553
0.00183159
0.0017104
0.00165065
0.00330925
0.00334603
0.00335787
0.00335269
0.00330053
0.00317545
0.00297782
0.0027074
0.00243517
0.00230641
0.0032693
0.00327258
0.00324148
0.00317114
0.00302549
0.00279556
0.00251191
0.00226992
0.00207416
0.0019784
0.00314372
0.00308584
0.00297714
0.00279193
0.00257136
0.00231733
0.00210686
0.00193661
0.00185528
0.00182317
0.00286258
0.00277739
0.00255253
0.00237062
0.00214913
0.00195027
0.00181874
0.0017574
0.00173782
0.0017683
0.00247802
0.00235894
0.00213044
0.00200335
0.00180736
0.00171279
0.00164345
0.00162391
0.00162454
0.00168034
0.00220268
0.00204949
0.00186996
0.00178226
0.00164702
0.00159079
0.00152591
0.00151619
0.00153059
0.00159238
0.00189042
0.0017267
0.00160503
0.00150148
0.00145112
0.00144339
0.00144552
0.00144369
0.00148143
0.00155092
0.00163135
0.00155317
0.00145245
0.00140871
0.00139421
0.00137335
0.00139475
0.00140387
0.00143328
0.00146025
0.00156856
0.001477
0.0014358
0.00142437
0.00141141
0.00136425
0.00138691
0.00138652
0.00141487
0.00141926
0.00159535
0.00148902
0.00143452
0.00143864
0.0014327
0.00136137
0.00135327
0.00138062
0.00138749
0.00125996
0.00168878
0.00155018
0.00154381
0.00154386
0.00155316
0.0016003
0.00165453
0.00169946
0.00175892
0.0018674
0.00168807
0.00152457
0.00151395
0.00151805
0.00154004
0.00159478
0.00163644
0.00167667
0.0017533
0.00189546
0.00174439
0.00153715
0.00149338
0.00149908
0.00152348
0.00156614
0.00160148
0.00163816
0.0017272
0.00189658
0.00193924
0.0016357
0.0015201
0.00148327
0.00148376
0.00150438
0.00153273
0.00158776
0.00166096
0.00174676
0.00230851
0.00193816
0.00168891
0.00155519
0.00150256
0.00147465
0.00146861
0.00152417
0.00156374
0.0015641
0.00251056
0.00225835
0.00199476
0.00175443
0.00158471
0.00148172
0.00142568
0.00143446
0.00143843
0.00138826
0.00255986
0.00239141
0.00221949
0.00196597
0.00171855
0.00153389
0.00140864
0.00133449
0.00130565
0.00125398
0.00251991
0.00239555
0.00227461
0.0020992
0.00185333
0.0016165
0.00142904
0.00129062
0.00122683
0.00119528
0.00240416
0.00235145
0.00225894
0.00214645
0.00193963
0.00171089
0.00148205
0.001293
0.00120458
0.00117435
0.00214163
0.00216364
0.00215126
0.00210219
0.00199035
0.00177089
0.00154848
0.00132743
0.00120522
0.00116738
0.00486613
0.00498575
0.00517432
0.0055497
0.00582109
0.00609822
0.00663178
0.00781867
0.00816788
0.00768019
0.00495707
0.0049957
0.00509395
0.00531292
0.00564274
0.00594424
0.00639213
0.0072294
0.00787356
0.00747253
0.00548565
0.0052048
0.00516273
0.00526709
0.00548096
0.00575037
0.00617687
0.0068722
0.00767168
0.00740093
0.00619633
0.00574019
0.00547712
0.00539426
0.0054916
0.00571945
0.00612119
0.00683648
0.00765946
0.00745128
0.00683704
0.00635864
0.00595505
0.00574247
0.00572692
0.00590378
0.0063813
0.00705079
0.00770561
0.00752367
0.00831058
0.00763993
0.00701923
0.00659287
0.00652537
0.00673926
0.00720244
0.00773047
0.00787442
0.00769564
0.010364
0.0093849
0.00870818
0.00831118
0.0081641
0.00827577
0.00832758
0.00822979
0.00804201
0.00780066
0.00983052
0.00929761
0.0090292
0.00876341
0.00856531
0.0083999
0.00826731
0.00814486
0.00796074
0.0076981
0.00814707
0.00816314
0.00824274
0.00819243
0.00818769
0.00808926
0.00795012
0.00782005
0.00763975
0.00738459
0.00666034
0.00703845
0.00739591
0.00759765
0.00759313
0.00750065
0.00739228
0.00725759
0.00705282
0.00674763
0.00430341
0.00442956
0.00453627
0.00475221
0.00500072
0.00518902
0.00538244
0.00571257
0.00638073
0.00705873
0.00435678
0.00440933
0.00450977
0.00468333
0.0048917
0.00505255
0.00528119
0.00560467
0.00620788
0.00686856
0.00469889
0.00456476
0.00457464
0.00466715
0.00485199
0.00502331
0.00523199
0.00548813
0.00597946
0.00658384
0.00511776
0.00494238
0.00479538
0.00479821
0.00488927
0.00504121
0.00522689
0.00547924
0.00589697
0.00646661
0.00545591
0.00533368
0.00513307
0.00505058
0.0050651
0.00513384
0.00528408
0.0055327
0.00595627
0.0064821
0.00621336
0.00607785
0.0058296
0.00562698
0.00549926
0.00548997
0.00557208
0.00578717
0.00617243
0.00662244
0.00796658
0.00771587
0.00725481
0.0068529
0.00653332
0.00638465
0.00643835
0.00657066
0.00676897
0.00696423
0.00864536
0.00837981
0.00800106
0.00769776
0.00749281
0.00732767
0.00722922
0.00720829
0.00715493
0.00703878
0.00790269
0.00787917
0.00783745
0.00773672
0.00763726
0.00750882
0.00736492
0.00724288
0.00710033
0.00696559
0.00636792
0.00669204
0.00707516
0.0071956
0.00721349
0.00716036
0.00706138
0.00695241
0.00676379
0.00663571
0.00407347
0.00415613
0.00427814
0.00442162
0.00458489
0.00476335
0.00489477
0.0050531
0.00524426
0.00567791
0.00407727
0.00410645
0.00420334
0.00435195
0.00450141
0.00464327
0.00475934
0.00492065
0.0051732
0.0055406
0.00423436
0.00421392
0.00425085
0.00434884
0.0044923
0.00464247
0.00477622
0.00490521
0.00515324
0.00539221
0.00457073
0.00449933
0.00443263
0.00445186
0.00454252
0.00466654
0.00481771
0.00493837
0.00515617
0.00536671
0.00474322
0.00472814
0.00468632
0.00466228
0.00468592
0.00477275
0.00491251
0.00501187
0.00517956
0.0053918
0.00512086
0.00517559
0.00516427
0.0051152
0.00505733
0.00507361
0.00513763
0.00519346
0.00530129
0.00547934
0.00625251
0.00633033
0.00624674
0.00608747
0.00590071
0.00575185
0.00568482
0.00565042
0.00568092
0.00575312
0.00696143
0.00694777
0.00685723
0.00669219
0.00652235
0.00637787
0.00623088
0.00613253
0.00610931
0.00611114
0.00689569
0.00689337
0.00683133
0.00671148
0.00659968
0.00650446
0.00638726
0.00628258
0.00621387
0.00615623
0.00605862
0.00605391
0.00615641
0.00621986
0.00626992
0.00629978
0.00626238
0.0061991
0.00608092
0.00610455
0.00404539
0.00410847
0.00426483
0.00437598
0.00449364
0.00460101
0.00468272
0.00479819
0.00485613
0.00506066
0.00394635
0.00396713
0.00406472
0.00420017
0.00432923
0.00444374
0.00450776
0.00459283
0.00472868
0.00488798
0.00400432
0.0040121
0.004074
0.0041878
0.00429861
0.00442834
0.00451884
0.00459578