/*--------------------------------*- C++ -*----------------------------------*\
  =========                 |
  \\      /  F ield         | OpenFOAM: The Open Source CFD Toolbox
   \\    /   O peration     | Website:  https://openfoam.org
    \\  /    A nd           | Version:  9
     \\/     M anipulation  |
\*---------------------------------------------------------------------------*/
FoamFile
{
    format      ascii;
    class       volScalarField;
    location    "80";
    object      f19.gas;
}
// * * * * * * * * * * * * * * * * * * * * * * * * * * * * * * * * * * * * * //

dimensions      [0 0 0 0 0 0 0];

internalField   nonuniform List<scalar> 
137980
(
0.000895612
0.000907795
0.000991014
0.00114687
0.00131728
0.00141443
0.00144789
0.00146282
0.00163074
0.00223509
0.000880152
0.000886478
0.000983942
0.00116491
0.00136772
0.00149239
0.00152867
0.00153058
0.00167712
0.00202067
0.000863128
0.000867102
0.000959483
0.00114917
0.00137672
0.00154803
0.00162291
0.00163147
0.00168068
0.00185658
0.000837861
0.000843268
0.000926158
0.00110142
0.00133698
0.0015485
0.00169509
0.00173975
0.00174037
0.00183245
0.000814558
0.000819345
0.000880798
0.00102725
0.0012526
0.001481
0.0016849
0.00180364
0.00184491
0.00186256
0.000798486
0.000797456
0.00083372
0.000938653
0.00111591
0.00133754
0.00158671
0.00177253
0.00185716
0.00188816
0.000804164
0.00079217
0.00080091
0.000858266
0.000980258
0.00113903
0.00133111
0.00157212
0.00175194
0.00182952
0.000860831
0.000803441
0.000793442
0.000810679
0.000879406
0.000989433
0.00110766
0.0012412
0.00138466
0.00148804
0.000936126
0.000867585
0.000803216
0.000796317
0.00082083
0.000897772
0.000994969
0.00110263
0.00121383
0.00127294
0.00100702
0.000919284
0.00083185
0.000798638
0.000789512
0.000825903
0.000898938
0.00101406
0.00109614
0.0012736
0.00091886
0.000940341
0.00103623
0.00120141
0.00136703
0.00149729
0.00159504
0.00162717
0.00156858
0.0026565
0.000902803
0.000926701
0.00104576
0.00122769
0.0014274
0.00160107
0.00170893
0.00174331
0.00170312
0.00264916
0.000882208
0.000908527
0.00103172
0.00123369
0.00145382
0.00168632
0.00185632
0.00191454
0.00190327
0.00264167
0.000852995
0.000878924
0.000992601
0.00119082
0.00143799
0.00171447
0.00198766
0.00210262
0.00210283
0.00263009
0.000825655
0.000842664
0.000933172
0.00111108
0.00136088
0.00166409
0.00198432
0.00222248
0.00228571
0.00256113
0.000812287
0.000815645
0.00086482
0.00100046
0.0012188
0.00152691
0.00189541
0.00220601
0.00233982
0.00243639
0.000832402
0.000810529
0.00081945
0.000891637
0.00105524
0.00129214
0.00163492
0.00205719
0.00231742
0.0024059
0.000947422
0.000839329
0.000816042
0.000828953
0.000922064
0.00108187
0.00129223
0.00160097
0.00199024
0.00225057
0.00112062
0.000960394
0.000847238
0.000819147
0.000843566
0.000952396
0.00109743
0.00127932
0.00150241
0.00168958
0.001148
0.00103298
0.000908255
0.000830547
0.000812364
0.000858239
0.000959697
0.00112043
0.00128906
0.00135742
0.000923713
0.000952106
0.00105534
0.00122918
0.00143988
0.00170895
0.00191597
0.00166795
0.00162362
0.00355473
0.00090847
0.000945288
0.00107752
0.0012867
0.00155896
0.0018909
0.00203177
0.0017431
0.00166375
0.00348214
0.000888606
0.000932541
0.00107753
0.00131181
0.0016368
0.00208868
0.00225666
0.00188133
0.0017379
0.0033275
0.00085898
0.000904606
0.00104474
0.00129174
0.00166232
0.00221559
0.00245425
0.0021134
0.00189299
0.00313291
0.000838099
0.000865186
0.000981783
0.00121491
0.00160606
0.00225058
0.00260127
0.00236681
0.0021371
0.00294118
0.000836205
0.000838938
0.000901618
0.00108939
0.00144926
0.00212079
0.00268599
0.0026697
0.00229854
0.00276667
0.000911871
0.000846283
0.000851686
0.000955777
0.00122985
0.00177638
0.00263203
0.00287579
0.00265823
0.00276309
0.00119262
0.000925517
0.000850922
0.000871365
0.00103142
0.00139158
0.00218949
0.00281156
0.00288569
0.00284145
0.00155035
0.00119474
0.000947488
0.000855759
0.000908502
0.00113513
0.00156698
0.00240054
0.00279756
0.00292663
0.0014813
0.00128884
0.00111112
0.00087806
0.000857868
0.000974989
0.0012571
0.00169074
0.00205299
0.00203259
0.000929248
0.000973662
0.00110163
0.00131424
0.0017067
0.00240273
0.0021819
0.00188451
0.00240406
0.00574046
0.000919833
0.000986711
0.0011691
0.00149247
0.00218016
0.00256986
0.00217617
0.00201111
0.00265821
0.00567766
0.000904496
0.000989085
0.00119959
0.00161643
0.00245283
0.00273786
0.00225904
0.00208579
0.00266389
0.00552762
0.000881107
0.00096975
0.00119321
0.00165989
0.00260767
0.002953
0.00244159
0.00217886
0.00259137
0.00530796
0.000869183
0.000928994
0.00112908
0.0015943
0.00264482
0.00314308
0.00270726
0.00230819
0.0024106
0.00496791
0.00087656
0.000898634
0.00102544
0.00142819
0.00248343
0.0032481
0.0030701
0.0024674
0.00238273
0.00426747
0.000959855
0.000901328
0.000946165
0.00121003
0.00205964
0.00322814
0.00339009
0.00265044
0.00244237
0.00339546
0.00127953
0.000976584
0.000927396
0.00104072
0.00161766
0.00301373
0.00344057
0.00306684
0.00262245
0.00315516
0.00166144
0.00124919
0.000995602
0.000964207
0.00127075
0.00240276
0.003267
0.00327379
0.00300569
0.00319466
0.00165552
0.00140055
0.00114792
0.000959301
0.00107827
0.00181969
0.00284549
0.00308922
0.0029402
0.00290024
0.000972092
0.00109055
0.00141645
0.00207922
0.00251063
0.00233192
0.00198296
0.00195206
0.00477914
0.00834852
0.00100968
0.00125541
0.00198326
0.00260713
0.00270222
0.00226351
0.00207822
0.0024927
0.00631521
0.00797604
0.0010281
0.00136265
0.00228291
0.00276678
0.00276694
0.00238939
0.00233367
0.00346761
0.00648463
0.0068924
0.00103365
0.00139837
0.00240056
0.00295065
0.00296083
0.00269202
0.00273754
0.0043521
0.0063547
0.0059818
0.00102944
0.00134544
0.00227835
0.00306435
0.00316138
0.00294806
0.00295668
0.00435806
0.00613653
0.00609568
0.00101833
0.00123442
0.00196981
0.00306151
0.00333196
0.00315308
0.00311566
0.00416325
0.00590007
0.00625177
0.00105844
0.00112455
0.00159997
0.00287871
0.00339215
0.00340742
0.00322893
0.00362103
0.00540549
0.0061409
0.00122626
0.00112159
0.00132799
0.0022611
0.00333526
0.00359469
0.00342531
0.00347055
0.00437342
0.00559943
0.001521
0.00124559
0.00121388
0.00169452
0.003071
0.00362624
0.0037291
0.00353721
0.00407062
0.00493469
0.00162268
0.00136258
0.0012475
0.00138675
0.00248521
0.00351795
0.00376108
0.00375842
0.00394353
0.00443947
0.00162763
0.00166981
0.00166504
0.00183459
0.00208136
0.00178277
0.00172311
0.00335447
0.00777064
0.00824826
0.00220339
0.00238566
0.00246404
0.00241131
0.00214426
0.00202686
0.00271499
0.0061637
0.00746703
0.00693681
0.00247965
0.00267277
0.00271992
0.00251069
0.00238514
0.00267687
0.00490254
0.00618735
0.00632592
0.00381648
0.00266494
0.00291343
0.00295971
0.00285269
0.00294785
0.00396328
0.00541056
0.00579045
0.00401737
0.00276991
0.00277194
0.00314629
0.00327128
0.00330524
0.0036587
0.00474291
0.00523916
0.00484578
0.00310621
0.00258119
0.00266127
0.00327954
0.00358447
0.0036798
0.00416258
0.0047098
0.00486888
0.00408696
0.00296833
0.00276862
0.00234207
0.0031977
0.00369592
0.00410904
0.00435643
0.00458101
0.00452363
0.00367333
0.00308245
0.00358073
0.0019936
0.0029728
0.00364124
0.004263
0.0044871
0.00457661
0.00436701
0.00365951
0.0032461
0.00462173
0.00190295
0.00245016
0.00347044
0.00421014
0.00454898
0.00460357
0.00440172
0.00375436
0.00339179
0.00438048
0.0018106
0.00207156
0.00306695
0.00399836
0.00457612
0.00472916
0.0045608
0.00409647
0.00375901
0.00429157
0.00149173
0.00164846
0.00159909
0.00166917
0.00182391
0.00270167
0.00556815
0.00647487
0.00616766
0.00551923
0.00216688
0.00207279
0.00202134
0.00204708
0.00273806
0.00472735
0.00547837
0.00552764
0.00418283
0.00366638
0.00248163
0.00241016
0.00241113
0.00279958
0.00419491
0.00489652
0.00503703
0.00361448
0.00271276
0.00234583
0.00286674
0.00284572
0.00302656
0.0037991
0.00451035
0.00470783
0.0039745
0.00261473
0.00226601
0.00219868
0.0033454
0.00337327
0.00375392
0.00426692
0.00445334
0.00425166
0.00288077
0.00234532
0.0022459
0.00240829
0.00378518
0.0039046
0.0042079
0.0043252
0.00429298
0.00356156
0.00260235
0.00242043
0.00264216
0.003908
0.00410215
0.00425764
0.00437546
0.00437249
0.00408935
0.00315474
0.00267744
0.00269484
0.00382825
0.00551013
0.00420828
0.00445376
0.00450458
0.00446033
0.00411624
0.00318857
0.00282657
0.00300324
0.00437319
0.00587428
0.00411479
0.00453206
0.00460951
0.0045632
0.00424258
0.00334458
0.00300774
0.00311599
0.00410374
0.0054807
0.00403251
0.00453539
0.00470746
0.00471549
0.00446706
0.00375595
0.00336304
0.00332721
0.003813
0.00496301
0.00424054
0.00444008
0.00442337
0.0043513
0.00403746
0.00377816
0.00345873
0.00329602
0.00322558
0.00320041
0.00364061
0.00366416
0.00334429
0.00320398
0.00287549
0.00264617
0.00240436
0.00230125
0.00226257
0.00226543
0.00330728
0.00321096
0.00290072
0.00276412
0.00251127
0.00233014
0.00224382
0.00220464
0.00223722
0.00233447
0.00326815
0.00303732
0.00285431
0.00264362
0.00243843
0.00234908
0.00232148
0.00246696
0.00277802
0.00301008
0.00337453
0.00312043
0.00294141
0.00265905
0.00251117
0.0024943
0.00279257
0.00356808
0.00414832
0.0043905
0.00364895
0.00333422
0.00309592
0.00277803
0.00269897
0.00276833
0.00329888
0.00418998
0.00482148
0.00511315
0.00401834
0.00374713
0.00336347
0.00297606
0.00282103
0.00279236
0.00314457
0.00402085
0.004996
0.00530928
0.00439333
0.00414464
0.00366932
0.00323849
0.00293638
0.00277079
0.00276745
0.00321531
0.00439666
0.00526329
0.00465506
0.00448224
0.00417214
0.00357718
0.00317946
0.00281719
0.00270332
0.0027941
0.00326993
0.00478059
0.00496922
0.00479079
0.0044727
0.00406111
0.00387874
0.00332417
0.00292071
0.00296787
0.00322921
0.00445223
0.00311504
0.00319289
0.00297124
0.0028793
0.00275653
0.00271039
0.00270014
0.00274766
0.00280918
0.00290946
0.00288548
0.00282072
0.00263847
0.00258109
0.0025558
0.00257193
0.00264691
0.00268102
0.00270259
0.00270969
0.00269946
0.00258282
0.00249373
0.00248334
0.00257291
0.00280048
0.00304272
0.0031896
0.00331936
0.0034091
0.00266798
0.00242656
0.00235247
0.00236078
0.00256959
0.00289749
0.00327365
0.00363398
0.00380976
0.003885
0.00281923
0.00238028
0.0022247
0.00220391
0.00234074
0.00264288
0.00322516
0.00380572
0.00404476
0.00409257
0.00323921
0.00249546
0.00222491
0.00208719
0.00206451
0.00222533
0.00279355
0.00370968
0.00412031
0.00413038
0.00397341
0.00293637
0.00237537
0.00214679
0.0020173
0.00197154
0.00225686
0.00275465
0.00369156
0.00394616
0.00464676
0.00353983
0.0027639
0.00243072
0.00231487
0.00215396
0.00219222
0.00239662
0.0029316
0.00377135
0.00518576
0.00433053
0.00367084
0.00321037
0.00318038
0.00298006
0.00265221
0.00261346
0.002723
0.00359712
0.00522008
0.00464577
0.00419303
0.00413354
0.00447536
0.00396358
0.00350068
0.00345721
0.00357701
0.00379148
0.0032589
0.00333528
0.00333061
0.00333097
0.00333003
0.00336437
0.00342784
0.0035573
0.00376873
0.00390702
0.00283179
0.00288385
0.00288425
0.00290675
0.00292412
0.00296862
0.00301013
0.00306248
0.00311233
0.00318379
0.00261871
0.00259285
0.00258799
0.0026474
0.00275334
0.0028889
0.00300935
0.00312188
0.00321251
0.00329266
0.00235857
0.0022261
0.00219233
0.0022333
0.0024124
0.00269918
0.00300602
0.00327509
0.00341608
0.00347032
0.00245016
0.00205663
0.00188203
0.00183706
0.0018791
0.00212867
0.00254258
0.00309207
0.00340307
0.00348723
0.00276998
0.00226051
0.00188263
0.00165486
0.00160224
0.00164149
0.00183993
0.00226431
0.00291413
0.003437
0.00380051
0.00284509
0.00211181
0.00177322
0.00160102
0.00158579
0.00167297
0.00194896
0.00244115
0.00331314
0.0045679
0.00360672
0.00258309
0.00206994
0.00187458
0.00188933
0.00194662
0.00207904
0.00235179
0.00319846
0.00495194
0.00431153
0.00334268
0.00255539
0.00263295
0.00273485
0.00269457
0.00273983
0.00287495
0.0033504
0.00495076
0.00424784
0.00347077
0.0033935
0.00384091
0.00388099
0.00369919
0.00371701
0.00367574
0.00365254
0.00430275
0.00482284
0.00499792
0.00510471
0.00513202
0.00512886
0.00510257
0.00509712
0.00516444
0.00519738
0.00354474
0.00367527
0.0037184
0.00376792
0.00379107
0.00379423
0.00374863
0.00369834
0.00367843
0.00363791
0.00323761
0.00327958
0.003277
0.00324321
0.00318988
0.00315957
0.00310198
0.00303252
0.00298678
0.00289903
0.00284082
0.00284903
0.00287695
0.00292674
0.00294676
0.00295262
0.00290086
0.00282687
0.00275792
0.00269275
0.00252719
0.00239063
0.00236132
0.00240137
0.00248844
0.00260252
0.00265952
0.00266793
0.00257432
0.00251289
0.00244088
0.00223544
0.00199877
0.00191118
0.00189465
0.0019396
0.00206944
0.00222738
0.00221112
0.00217517
0.00289702
0.00244083
0.00206202
0.00180667
0.0016622
0.00162477
0.00164856
0.00172863
0.00178208
0.00193652
0.00398426
0.00299963
0.00230644
0.00192969
0.00173682
0.00166575
0.00166052
0.00167719
0.00172931
0.00189723
0.00451881
0.00406412
0.00294511
0.00222283
0.00200907
0.00202345
0.00212821
0.00221393
0.0022906
0.00245884
0.0045546
0.00431866
0.00328307
0.00253395
0.00259171
0.00290205
0.00295705
0.00297182
0.00298001
0.00298204
0.00285045
0.00261475
0.0022945
0.0021418
0.00208488
0.00208136
0.0022513
0.00289854
0.00454262
0.00591802
0.00362415
0.00310406
0.00271626
0.00251742
0.00247277
0.00273775
0.00360898
0.00481267
0.00537591
0.00556735
0.00396638
0.00388467
0.00369186
0.00356707
0.00363183
0.00413453
0.00452454
0.00469907
0.00467537
0.00356384
0.00397579
0.00404066
0.00409227
0.00408841
0.00408393
0.00423865
0.00429811
0.00400595
0.00310317
0.00270856
0.00361232
0.00390989
0.00400612
0.00403109
0.00403094
0.00401243
0.00361597
0.00304157
0.00262819
0.00245183
0.00326066
0.00345598
0.00373276
0.00378999
0.00378045
0.00357937
0.00319052
0.00271897
0.00247266
0.00236148
0.00319205
0.0030897
0.00328783
0.00340338
0.00338601
0.00316512
0.00273743
0.00236436
0.00222449
0.00216707
0.00377567
0.00305175
0.00286547
0.00297497
0.00306809
0.00302328
0.00271478
0.0023006
0.00208825
0.00203599
0.00447066
0.00330913
0.0029263
0.00263457
0.00263959
0.00269311
0.00266208
0.002434
0.00219453
0.00214923
0.00454677
0.00386198
0.00292845
0.00263039
0.00266877
0.00277615
0.00279563
0.0027396
0.00251049
0.00235031
0.00497428
0.00471214
0.00471016
0.0046641
0.00464088
0.00488006
0.00425177
0.00295255
0.00233966
0.00207376
0.00449202
0.00446666
0.00448029
0.00446092
0.00444063
0.00449606
0.00474722
0.00446508
0.00368595
0.00276205
0.00436601
0.00440007
0.00445917
0.00445495
0.00447461
0.00456404
0.00475281
0.00498579
0.00459158
0.00344981
0.00419597
0.00425651
0.00429355
0.00430687
0.00437963
0.00454734
0.00478816
0.0049709
0.00449568
0.00328779
0.00412236
0.00419022
0.00415834
0.00413899
0.00421285
0.00442996
0.00469775
0.00474025
0.00407251
0.00304392
0.00405846
0.00399375
0.00390654
0.00392523
0.00407055
0.00431853
0.00445982
0.00435847
0.00366138
0.00296559
0.00396647
0.00386224
0.0037891
0.00375433
0.0038955
0.00411708
0.00423431
0.00412117
0.00364521
0.00298863
0.00389326
0.00379705
0.00365921
0.00354726
0.00362419
0.00380972
0.00404245
0.0040464
0.00367169
0.00310181
0.00382854
0.00378976
0.00358919
0.00342082
0.0033805
0.00349471
0.00372432
0.00384467
0.00354172
0.00307486
0.00366772
0.00379373
0.00358616
0.00334897
0.00320011
0.00318209
0.00335985
0.0036378
0.00347773
0.00291405
0.00528966
0.00497496
0.00500891
0.00500066
0.0049284
0.0047595
0.00459597
0.00455678
0.00459883
0.00475793
0.00493183
0.00485863
0.0048676
0.00484772
0.00475807
0.00454578
0.00440515
0.00434033
0.00435273
0.00434564
0.00485326
0.00480576
0.00479571
0.00471755
0.00450253
0.00426197
0.00410002
0.00411702
0.00418763
0.00416228
0.00476827
0.00469607
0.00458565
0.00432553
0.00403641
0.00388808
0.0038818
0.00394053
0.00406535
0.00400625
0.00457487
0.00447047
0.0042803
0.00396026
0.00380555
0.00374277
0.0038008
0.00392479
0.00400453
0.00392641
0.00432004
0.0042891
0.00404388
0.00374115
0.00362503
0.00364399
0.00377402
0.00394195
0.003885
0.00383903
0.00414899
0.00420035
0.00388081
0.00359802
0.00349771
0.00355796
0.00380888
0.00393425
0.00384388
0.00375539
0.00407107
0.00410949
0.00380693
0.00353586
0.00344021
0.00350359
0.0038136
0.0039439
0.00384589
0.0037458
0.00403128
0.00406668
0.00379077
0.00353683
0.0034368
0.00349553
0.00379853
0.00396532
0.00394617
0.00380469
0.00401565
0.00404934
0.00380927
0.00366664
0.00364088
0.00376585
0.00390152
0.00392926
0.00371932
0.00324242
0.00460085
0.00444463
0.0042869
0.00407086
0.00397423
0.0038518
0.00376361
0.00382975
0.00424089
0.00443644
0.00461238
0.00435377
0.00414438
0.00385203
0.00361058
0.00345369
0.00339688
0.00346609
0.00372797
0.00380637
0.00441268
0.00408643
0.00382328
0.0034488
0.00313454
0.00292705
0.00291748
0.00300152
0.00324939
0.00339274
0.00427522
0.00395777
0.00366877
0.00321909
0.00289124
0.00273065
0.00274249
0.00281793
0.00303496
0.00325884
0.00403102
0.00374341
0.00346151
0.00305416
0.00279748
0.00269044
0.00271204
0.00279188
0.00300116
0.00326064
0.0039019
0.00365294
0.00338503
0.0030116
0.00277874
0.00270352
0.0027346
0.00282722
0.0030374
0.00327216
0.00383907
0.00357657
0.0033571
0.00302366
0.00288841
0.00286564
0.00286946
0.0029348
0.00309081
0.00335272
0.00382657
0.00355196
0.00336325
0.00320172
0.00314049
0.0031481
0.00316055
0.00314333
0.00314501
0.00338486
0.0039098
0.00355202
0.00343274
0.00334031
0.00333231
0.0033684
0.00336346
0.00343112
0.00346701
0.00351374
0.00407382
0.00359304
0.00347019
0.00343095
0.00343826
0.0034543
0.00336843
0.00330779
0.00323784
0.00288419
0.00337093
0.00297336
0.00283248
0.00273137
0.00269597
0.00266986
0.00267735
0.00284456
0.003361
0.00397213
0.00358516
0.00297435
0.00276348
0.00262954
0.00254832
0.00248014
0.00246964
0.00253
0.0027922
0.00288926
0.00359323
0.00284923
0.00265668
0.00256913
0.00248917
0.00240398
0.00235831
0.00237638
0.00249069
0.00258902
0.00358361
0.00280875
0.00261964
0.00255704
0.00248136
0.0023928
0.00233199
0.00232666
0.00237896
0.0025178
0.00357722
0.00275953
0.00260101
0.00257652
0.00252877
0.00244184
0.00235324
0.00232481
0.00238048
0.00256002
0.00359578
0.00274473
0.00260005
0.00263738
0.00261744
0.00255341
0.00244516
0.00237486
0.00242765
0.00266557
0.00365075
0.00274147
0.00262576
0.00270779
0.00273112
0.00269679
0.00258988
0.00248486
0.0024917
0.00275419
0.00377574
0.00279125
0.00267204
0.00279366
0.00284075
0.0027908
0.0026845
0.00262508
0.00258065
0.00270272
0.0040399
0.00285354
0.00271495
0.00284384
0.00289724
0.00281776
0.00270866
0.00269725
0.0027712
0.00274675
0.00417147
0.00293869
0.00277861
0.00289113
0.0029194
0.00278614
0.00260027
0.00252554
0.00243522
0.00229486
0.00391227
0.00397409
0.00401736
0.00382564
0.00362114
0.00347953
0.00345201
0.00339121
0.00303648
0.00282348
0.0038175
0.0038189
0.00397023
0.00379457
0.00353704
0.00337253
0.00317588
0.00302523
0.00283626
0.00235439
0.00376614
0.00372784
0.0039284
0.00379693
0.00352969
0.00333443
0.00303991
0.00283322
0.00254776
0.00221737
0.00374557
0.00361042
0.00390067
0.00388922
0.00362054
0.00333369
0.00297636
0.00267152
0.00232389
0.00199352
0.00377315
0.00350973
0.00385233
0.00394723
0.00375242
0.00343721
0.00295959
0.00261311
0.0022315
0.0019391
0.00395691
0.00344868
0.00374374
0.00397314
0.00387416
0.0036008
0.00309299
0.00262092
0.00221424
0.00194153
0.00436112
0.00343242
0.00355297
0.00398425
0.00399891
0.00387476
0.00338246
0.00288043
0.00243005
0.00205059
0.00507733
0.00349571
0.00332673
0.0039858
0.0040664
0.00418935
0.00385576
0.0033235
0.00283411
0.00238563
0.00564486
0.00377571
0.00305841
0.0039262
0.00408288
0.00438117
0.00457224
0.0042271
0.00367644
0.00334577
0.00589539
0.00409362
0.00285023
0.00380293
0.00406206
0.00440203
0.00494926
0.00534533
0.00547478
0.00471079
0.00611132
0.00405084
0.00355391
0.00346431
0.00340902
0.00333223
0.00315312
0.00287074
0.00284397
0.00312991
0.00576924
0.00409154
0.00350773
0.00339554
0.00333057
0.00325787
0.00305373
0.00276856
0.0028049
0.0028084
0.00602788
0.00403495
0.00330146
0.00328305
0.00329693
0.00324069
0.00301923
0.00271239
0.00260338
0.00258804
0.00614019
0.00401537
0.00320058
0.00322499
0.00328947
0.00324563
0.00300882
0.00266251
0.00246182
0.00248098
0.00615817
0.00381115
0.00300822
0.00311143
0.00329261
0.00329904
0.00302125
0.00263385
0.00236246
0.00230515
0.00591618
0.00361894
0.00291624
0.00304952
0.00330964
0.00339784
0.00309117
0.00262152
0.00227884
0.00208157
0.00578782
0.00337374
0.00276955
0.0029728
0.00334528
0.00346648
0.00321096
0.00264928
0.00226746
0.00207823
0.00557352
0.00324404
0.00270035
0.00293889
0.00336903
0.0034838
0.00330559
0.00278506
0.0024473
0.0022684
0.00550747
0.00319335
0.0026173
0.00290986
0.00337118
0.00346982
0.00332822
0.00285953
0.00255281
0.00234652
0.00551288
0.00318319
0.00257988
0.00290129
0.00334962
0.00341308
0.00328899
0.0028926
0.00254248
0.00237889
0.00490665
0.00386836
0.00354998
0.00340587
0.00329031
0.0032352
0.00337296
0.00390573
0.00448361
0.00470821
0.00433055
0.00391304
0.00371585
0.00357971
0.0034879
0.00345546
0.00365857
0.00413888
0.0045719
0.00531468
0.00438996
0.00398295
0.00384005
0.00375807
0.00371979
0.0037553
0.00399857
0.00442159
0.00478729
0.00528324
0.00464637
0.00405063
0.00392509
0.00390447
0.00391446
0.00401672
0.00423139
0.00448362
0.00464787
0.00441914
0.00496764
0.00407792
0.00391699
0.00395015
0.00402117
0.00412102
0.00424764
0.00435761
0.00416822
0.00362174
0.0052445
0.00413507
0.00389445
0.00390596
0.00401353
0.00410361
0.00415876
0.0040613
0.00370668
0.00347291
0.00554653
0.00420066
0.00384774
0.00383103
0.00395753
0.00399789
0.00398135
0.00376272
0.00349255
0.00338995
0.00560655
0.00444317
0.00386252
0.00376718
0.00384829
0.00389044
0.00387202
0.00361864
0.00339133
0.00319601
0.00525143
0.00473185
0.00398753
0.00377523
0.00377404
0.00380264
0.00381218
0.00358985
0.00334026
0.0031874
0.00463409
0.00465855
0.00412699
0.00380752
0.0037768
0.00376429
0.00376272
0.00361005
0.00332308
0.0033558
0.00252503
0.00257835
0.00230488
0.00219672
0.00215468
0.00235604
0.00284654
0.00273784
0.00310313
0.00336808
0.00283881
0.00306808
0.00257988
0.00242529
0.00233435
0.00258655
0.00300514
0.00328249
0.00332192
0.00375367
0.00359384
0.00344695
0.00298115
0.00267685
0.00253404
0.00280599
0.0034021
0.00376888
0.00330173
0.00374164
0.00420051
0.00436029
0.00355139
0.00307846
0.00287414
0.00318991
0.00373478
0.00388055
0.0033383
0.00359787
0.00526883
0.00645946
0.00530871
0.00414946
0.00374126
0.00401974
0.00456848
0.00354877
0.00330509
0.0033437
0.00683864
0.00846848
0.00840618
0.00699825
0.00571969
0.00524074
0.0043963
0.00330254
0.00318445
0.00281561
0.00701643
0.00828438
0.00801734
0.00694031
0.00570194
0.00516991
0.00385679
0.00318406
0.00304207
0.0025837
0.00674678
0.00847236
0.00799444
0.00692151
0.00576832
0.00493005
0.00372638
0.00318591
0.00300976
0.00245805
0.00646335
0.00899169
0.00840276
0.00731132
0.00610619
0.00498309
0.00376473
0.00324245
0.003049
0.00248839
0.006576
0.00890274
0.00839485
0.00806633
0.00697734
0.00581906
0.00416006
0.00346555
0.00307561
0.00269659
0.0268625
0.0122137
0.00622331
0.00538913
0.00395736
0.00625285
0.0101108
0.00474327
0.0109479
0.0116428
0.0182699
0.0103582
0.00519648
0.0054737
0.00388428
0.00688896
0.00649944
0.00311825
0.0102367
0.012042
0.0296326
0.0149157
0.0135126
0.00493187
0.0035993
0.00773152
0.00683349
0.00276849
0.00728276
0.0174723
0.00834409
0.0162611
0.00663244
0.00373521
0.00457712
0.00626619
0.00377634
0.00190163
0.00402091
0.0168152
0.01192
0.00391385
0.00214131
0.00251196
0.00257288
0.00216342
0.00175336
0.00174018
0.00660907
0.00762939
0.00881245
0.00226457
0.0018959
0.00178114
0.00203804
0.00231105
0.00273034
0.00338698
0.0155392
0.00938064
0.00800695
0.00883308
0.0051458
0.00415413
0.0040725
0.00592386
0.00418705
0.00482067
0.00881033
0.0161419
0.0113566
0.00500076
0.00434668
0.00497281
0.00284749
0.00253823
0.00255208
0.00783
0.0107406
0.0183642
0.0116525
0.0053969
0.00371897
0.00360357
0.00292643
0.00267957
0.0037375
0.0103066
0.0124874
0.0196476
0.011677
0.00806154
0.00656169
0.00394947
0.00305485
0.00393634
0.00820825
0.00999357
0.00959627
0.0175581
0.00111348
0.0012126
0.00125729
0.00220985
0.00300672
0.00319347
0.00270476
0.00167396
0.00145725
0.00140553
0.00108454
0.0012617
0.00166675
0.0025912
0.00292407
0.00298621
0.00184388
0.00151746
0.00157152
0.00111817
0.00109527
0.00137271
0.00196768
0.00258113
0.00277681
0.00274187
0.00152452
0.00124157
0.00106294
0.00113799
0.00113115
0.00151307
0.00210241
0.00243493
0.0024407
0.00230336
0.00162265
0.00132578
0.00139143
0.00156247
0.00116857
0.00157531
0.00210833
0.00233739
0.00240156
0.00235738
0.0022609
0.00203903
0.00201994
0.00191128
0.00127616
0.00172039
0.00211033
0.00227265
0.0023016
0.00247458
0.0024637
0.00222428
0.00217838
0.00197006
0.00132882
0.00174118
0.00209889
0.00238822
0.00232403
0.00238268
0.00225046
0.00227632
0.00209006
0.00192271
0.00139097
0.00201962
0.0022303
0.00209759
0.00193253
0.00198103
0.00193348
0.00202181
0.00188752
0.00204862
0.00146058
0.00201248
0.00221716
0.00237936
0.00182785
0.001987
0.00202949
0.0030997
0.00351457
0.00368534
0.00146165
0.00195384
0.0026991
0.00289677
0.00225542
0.00197917
0.00233974
0.00303569
0.00306942
0.00285396
0.00114543
0.00122091
0.00124488
0.00137388
0.00143064
0.00150955
0.00152586
0.00144856
0.00119415
0.000668551
0.00119253
0.00128257
0.00131263
0.00138947
0.00139821
0.00140573
0.00125635
0.000891574
0.000587848
0.000489102
0.00121202
0.00126847
0.00129262
0.00131446
0.00122224
0.000921734
0.000669145
0.00046211
0.000398694
0.000434375
0.00118154
0.00119632
0.00111723
0.000918287
0.00068669
0.000469169
0.000363885
0.000310751
0.00029794
0.000344838
0.00101997
0.000864203
0.000647758
0.000503248
0.000369041
0.000303374
0.000274604
0.000262972
0.000258899
0.000269618
0.000627827
0.0005173
0.000399683
0.000344977
0.000281719
0.000254595
0.000232856
0.000238225
0.000233883
0.000247184
0.000417769
0.000344985
0.000296301
0.000273252
0.00024521
0.000224198
0.000211598
0.000215917
0.000221975
0.000238974
0.000316084
0.000290603
0.000277524
0.000275573
0.000280492
0.000223864
0.000206002
0.000204303
0.000210082
0.000225737
0.000291635
0.000277081
0.000285405
0.000317665
0.000327479
0.000240595
0.000204536
0.00019831
0.000209829
0.000216847
0.000438289
0.000286188
0.000304708
0.000393759
0.00035884
0.000250374
0.000202847
0.000199494
0.000204124
0.000178202
0.000579094
0.000324976
0.000224448
0.00021782
0.000220573
0.000233729
0.000250465
0.000264446
0.000280159
0.000310289
0.00073648
0.000569075
0.000227925
0.000213557
0.000217807
0.000231886
0.000244057
0.000257621
0.000281994
0.000316296
0.000742192
0.000791585
0.000427967
0.000215415
0.000213909
0.000223444
0.000233054
0.000248475
0.000277985
0.000302448
0.000650422
0.000597537
0.00077701
0.000474392
0.000217203
0.000211569
0.00022152
0.000241133
0.000259147
0.000258562
0.000662394
0.000551459
0.00051929
0.000426636
0.000251991
0.000213755
0.000222901
0.000250032
0.000255266
0.000219448
0.000732682
0.000595749
0.000540829
0.00052614
0.000392555
0.000260175
0.000210708
0.000242089
0.0002231
0.000184373
0.000774998
0.0007025
0.000648542
0.000635453
0.000505131
0.000297511
0.000202995
0.000204317
0.000189324
0.000163693
0.000747779
0.00071865
0.00067724
0.000648936
0.000584907
0.000369768
0.000232711
0.000179761
0.000169567
0.000161343
0.000733962
0.000710343
0.000670544
0.000637739
0.000587026
0.000477705
0.00027743
0.00018282
0.000161691
0.000166639
0.000594709
0.000621652
0.000640143
0.000616685
0.00057416
0.000519303
0.000333262
0.000206572
0.000159428
0.000169655
0.0019068
0.00192247
0.00212565
0.00237966
0.00243554
0.0025653
0.00286469
0.00361719
0.00363177
0.00326839
0.00195045
0.00199428
0.00200268
0.00214845
0.00246394
0.00266226
0.00275735
0.00309279
0.00344839
0.00320261
0.00213663
0.00202651
0.00196737
0.00198008
0.00209014
0.00228363
0.00241454
0.00269196
0.00314834
0.00308557
0.0025976
0.00220403
0.00203782
0.002002
0.00210753
0.00225947
0.00234874
0.00270891
0.00314584
0.0032427
0.00303564
0.00259861
0.00230372
0.00217529
0.00240995
0.00249985
0.0026248
0.00289513
0.00328285
0.00339875
0.00408802
0.00349938
0.00300072
0.00280579
0.00290761
0.00290361
0.00300649
0.00320759
0.0035873
0.00339853
0.00546072
0.00461029
0.0040115
0.00371601
0.00351415
0.00353197
0.00364806
0.00374347
0.00363954
0.00347417
0.00492374
0.00444429
0.00416224
0.00396052
0.00380768
0.0036797
0.00363601
0.00363843
0.00356937
0.00340974
0.00368883
0.00366088
0.00373144
0.0037024
0.00366209
0.00356717
0.00351644
0.00346004
0.00337822
0.00323212
0.00294483
0.0032241
0.0033599
0.00336838
0.00333358
0.00328721
0.00322643
0.00314728
0.00303225
0.00285385
0.00143332
0.00149063
0.00161288
0.00173862
0.0018352
0.00190281
0.00200145
0.00221172
0.00266206
0.00295294
0.00145339
0.00148897
0.0015504
0.00162712
0.00184722
0.00198499
0.00207365
0.00217882
0.0024254
0.00285202
0.00161515
0.00153734
0.00154308
0.00157391
0.00165139
0.00177112
0.00191734
0.00204501
0.00220412
0.0025393
0.00191197
0.0017137
0.00160575
0.0015979
0.00162682
0.00169738
0.00178366
0.00190904
0.00206223
0.00244527
0.00213019
0.00196464
0.00178606
0.00170639
0.00171102
0.00173933
0.00186769
0.00197811
0.00211356
0.00250967
0.00262511
0.00246829
0.00222569
0.00205051
0.00198183
0.00194464
0.00207207
0.00212764
0.00224878
0.00249932
0.0039546
0.00367884
0.00323996
0.00286515
0.00258769
0.00252919
0.00244628
0.00247843
0.00253928
0.00263441
0.004351
0.00407865
0.00366726
0.00333539
0.00310283
0.00292888
0.00283906
0.00282791
0.00288062
0.00293469
0.00359828
0.00356968
0.00349972
0.00332381
0.00316507
0.00303199
0.00294798
0.00288797
0.00283735
0.00283523
0.0025804
0.00271563
0.00294591
0.00301023
0.00299239
0.00292383
0.00284742
0.0027914
0.00270234
0.0026776
0.00119701
0.00123968
0.00129111
0.00139256
0.00149747
0.00158413
0.00164234
0.00172166
0.00185558
0.00215008
0.00121157
0.00122813
0.00126995
0.00132947
0.00143222
0.00161814
0.00169325
0.00177725
0.00186477
0.00205778
0.00131458
0.00128146
0.0012923
0.00132464
0.00139219
0.00148894
0.00159259
0.00171715
0.00179242
0.00198576
0.00153001
0.00143638
0.00137178
0.00136727
0.00139686
0.0014477
0.00151914
0.00159396
0.00166573
0.00180113
0.00163758
0.00157604
0.0015129
0.00147498
0.0014646
0.00148773
0.00154303
0.00159384
0.00167725
0.00180347
0.00186974
0.00185913
0.00181349
0.00174455
0.00169575
0.00167158
0.00167952
0.00168268
0.00175281
0.00183847
0.00269365
0.00269404
0.00260495
0.00244309
0.00226145
0.00212657
0.00202021
0.00194747