/*--------------------------------*- C++ -*----------------------------------*\
  =========                 |
  \\      /  F ield         | OpenFOAM: The Open Source CFD Toolbox
   \\    /   O peration     | Website:  https://openfoam.org
    \\  /    A nd           | Version:  9
     \\/     M anipulation  |
\*---------------------------------------------------------------------------*/
FoamFile
{
    format      ascii;
    class       volScalarField;
    location    "80";
    object      f20.gas;
}
// * * * * * * * * * * * * * * * * * * * * * * * * * * * * * * * * * * * * * //

dimensions      [0 0 0 0 0 0 0];

internalField   nonuniform List<scalar> 
137980
(
0.000529598
0.000539103
0.000598936
0.000709858
0.000829614
0.000949204
0.0011783
0.00238927
0.00738885
0.0207423
0.000519284
0.000524304
0.000592484
0.000720568
0.000863608
0.00102718
0.00136466
0.00253988
0.00681968
0.0160419
0.000508774
0.000511816
0.000575146
0.000706963
0.000867583
0.00104899
0.0014062
0.00248766
0.00581017
0.011319
0.000493216
0.000496965
0.000553333
0.000676844
0.000846756
0.00103486
0.00143008
0.00278383
0.00584611
0.0070792
0.000479361
0.000482206
0.000522784
0.000624175
0.000782919
0.000960089
0.00124304
0.00205331
0.00433934
0.00652592
0.000469941
0.000468741
0.000491805
0.000563043
0.000685295
0.000837327
0.00103883
0.00135824
0.00211076
0.00303232
0.000475256
0.000465702
0.000470636
0.000508672
0.000592288
0.000700315
0.000833736
0.00101075
0.00127137
0.00153222
0.000513736
0.000473588
0.000466005
0.000476987
0.000523793
0.000599079
0.000679471
0.000770441
0.000867534
0.000956324
0.000560798
0.000517678
0.000472652
0.000467176
0.000484334
0.00053664
0.000602134
0.000671958
0.000748454
0.000765927
0.000608628
0.000549593
0.000489443
0.000467552
0.000461926
0.000489254
0.00053838
0.000614185
0.000642147
0.00160948
0.000546247
0.000563029
0.000633411
0.000755995
0.000897695
0.00110748
0.00172363
0.00384968
0.0075881
0.026967
0.00053561
0.000553824
0.000639914
0.000777654
0.000962132
0.00128168
0.00207071
0.00400506
0.00795472
0.0257833
0.000522588
0.000542158
0.000630076
0.000783118
0.000991104
0.0013701
0.00227667
0.00408499
0.00818394
0.022071
0.000504083
0.000522425
0.000601245
0.000744235
0.000951731
0.00134079
0.00235886
0.00434107
0.00820735
0.018665
0.000487103
0.000498478
0.000559826
0.000684907
0.000876517
0.00121218
0.00217538
0.00489808
0.0079362
0.0156368
0.000478885
0.000480653
0.000513098
0.000605839
0.000763192
0.00102995
0.00167207
0.0039787
0.00657819
0.00817236
0.000492896
0.000477084
0.000482631
0.000530807
0.000644054
0.000818503
0.0011582
0.00242147
0.00846814
0.00920485
0.000568354
0.000495904
0.000479788
0.000488536
0.000552008
0.000662246
0.000820094
0.00118303
0.00380817
0.00617758
0.00067767
0.000576559
0.000500094
0.000481145
0.000498857
0.000572416
0.000671067
0.000807261
0.00124937
0.00298821
0.000697176
0.000621777
0.000537462
0.000486855
0.000476444
0.000510286
0.000578652
0.000690344
0.000788323
0.00155387
0.000550184
0.000571803
0.00064606
0.000773571
0.000943073
0.00124718
0.00194966
0.00450176
0.0111421
0.0413967
0.000539887
0.000566955
0.000661513
0.000818381
0.00105759
0.00148906
0.00231333
0.00438081
0.010608
0.0389703
0.000526963
0.000558365
0.000661316
0.000837615
0.001118
0.00165376
0.00243812
0.00391677
0.00902939
0.034653
0.000507907
0.000539235
0.000636533
0.000817409
0.00112749
0.00172798
0.00260349
0.00377852
0.00788926
0.0290078
0.000494558
0.00051247
0.000592106
0.000760628
0.00108201
0.00177314
0.00290238
0.00400311
0.0067993
0.0238423
0.000493145
0.000494702
0.000536345
0.000668231
0.000948921
0.00161604
0.00312931
0.00510024
0.00579999
0.0167099
0.000542929
0.000498635
0.00050234
0.000574181
0.000784054
0.00132918
0.00300131
0.00557939
0.00691965
0.012857
0.000729648
0.000550716
0.000500729
0.000515213
0.000635218
0.0010225
0.00286583
0.00820697
0.00925434
0.0131169
0.000976054
0.000730995
0.000564715
0.000503344
0.000542454
0.000741429
0.00157692
0.00547913
0.0125304
0.0170958
0.000919441
0.000788831
0.000669323
0.000517008
0.00050499
0.000595185
0.000894294
0.00189121
0.00658645
0.00801477
0.000553681
0.000585384
0.000675668
0.000827246
0.00110945
0.00192913
0.00354819
0.0101448
0.028991
0.0538013
0.00054717
0.000593649
0.000721468
0.000954421
0.00145611
0.00244034
0.00454421
0.0114941
0.0283317
0.0510415
0.000536903
0.000594813
0.00074157
0.00103252
0.00163406
0.00249631
0.00439478
0.0109716
0.0264224
0.0455337
0.000521084
0.000580582
0.000734867
0.0010603
0.00173391
0.00259098
0.00400572
0.00946443
0.0227978
0.0402132
0.000512865
0.000551654
0.000688065
0.0010135
0.00171521
0.00258978
0.00359735
0.00709966
0.0171581
0.0353451
0.000517197
0.000530482
0.000614524
0.00088962
0.00156695
0.00253489
0.00332569
0.00522324
0.0113807
0.0278513
0.000572838
0.000531491
0.000560163
0.000738425
0.0012995
0.00241992
0.00327938
0.0043368
0.00753916
0.0211551
0.000792338
0.000581226
0.000547007
0.000622426
0.00101153
0.00211788
0.00324012
0.00456289
0.00597147
0.0129847
0.00107086
0.000769438
0.000593038
0.000571163
0.000787152
0.00159249
0.0030661
0.00446136
0.00655974
0.0135368
0.00106103
0.000875463
0.000696865
0.000567685
0.000656632
0.00123023
0.00266639
0.00345567
0.00515029
0.00985331
0.000580334
0.00065937
0.000879815
0.00138
0.00211542
0.00391642
0.00838222
0.0226314
0.0471196
0.0550678
0.000602837
0.000761822
0.00121433
0.00204333
0.00314038
0.00567899
0.0118996
0.0268106
0.0454371
0.0490613
0.00061274
0.000824813
0.00137191
0.00226674
0.00369825
0.00707941
0.0149192
0.0304367
0.0414757
0.0391947
0.000614814
0.000844987
0.00143014
0.0022977
0.00369429
0.00702951
0.015101
0.0294711
0.0348975
0.0233898
0.000610636
0.000809784
0.0013613
0.00226788
0.00358085
0.00659966
0.0141845
0.0267227
0.0302988
0.020655
0.00060257
0.000738581
0.00118933
0.00212008
0.00325899
0.00554858
0.0113172
0.0216678
0.0261449
0.020937
0.000630906
0.000667806
0.000967453
0.00179366
0.00280921
0.00443156
0.00768695
0.0162557
0.0205267
0.0196894
0.000745617
0.000668785
0.000794886
0.00136848
0.00238488
0.00357343
0.00540558
0.0101982
0.0142889
0.0148212
0.000964857
0.00075595
0.00072715
0.00102732
0.00191522
0.00295165
0.00427743
0.0063116
0.0095703
0.0119382
0.00104274
0.000842556
0.000755513
0.000835221
0.00153648
0.00258547
0.00366465
0.00479676
0.00560118
0.00651821
0.0010355
0.00105082
0.00103354
0.00110095
0.0015107
0.00293165
0.0103236
0.0348684
0.0478853
0.0524271
0.00148214
0.00161973
0.00174695
0.00193531
0.00304305
0.00696135
0.0180093
0.0391218
0.0476073
0.0531943
0.0018167
0.00206483
0.00248157
0.00321264
0.00565284
0.0124898
0.0279394
0.040004
0.0440718
0.0438164
0.00206892
0.00265814
0.00339101
0.00476774
0.00886707
0.0187875
0.0317189
0.0370438
0.0343661
0.0220069
0.00210188
0.00300524
0.00430535
0.00670621
0.0120905
0.0226275
0.0297362
0.030582
0.0225926
0.00973273
0.00190397
0.00290918
0.00432709
0.00717358
0.0129689
0.021702
0.0253283
0.0235525
0.0147557
0.00700315
0.00155731
0.00246894
0.00410355
0.00699234
0.0125461
0.0191475
0.0212615
0.0183841
0.0120564
0.0076645
0.00134766
0.00257177
0.00337539
0.00639814
0.011266
0.0154363
0.0167896
0.0153242
0.0102468
0.00758863
0.00124268
0.00182972
0.00270203
0.00511294
0.00887084
0.0119342
0.0130559
0.0126078
0.00901926
0.00726804
0.00115236
0.00133707
0.00202878
0.00325016
0.006385
0.00852762
0.00889986
0.00884514
0.00721013
0.00613481
0.000914403
0.0010143
0.000985781
0.0012111
0.00227876
0.0069675
0.0255187
0.0388262
0.0425125
0.0434596
0.00140757
0.00135997
0.00141106
0.00223813
0.00572001
0.0177486
0.0316789
0.0364319
0.0374275
0.0375356
0.00168378
0.00174674
0.00227386
0.00471128
0.0130982
0.024938
0.0296274
0.0300327
0.0251385
0.0194647
0.00221094
0.002592
0.00402983
0.00878273
0.0181914
0.0239406
0.0251778
0.019614
0.0116612
0.00733844
0.00281209
0.00362548
0.00621709
0.011852
0.0182929
0.0206708
0.0171364
0.00958731
0.00646606
0.0056778
0.00353494
0.00498659
0.00810423
0.0132827
0.0163463
0.0159836
0.010952
0.00806055
0.00749127
0.00704174
0.00403601
0.00580521
0.00883972
0.0122923
0.0131283
0.0127704
0.0094559
0.00830201
0.00619978
0.00572647
0.00395399
0.0058072
0.0085341
0.0107066
0.0111787
0.0109946
0.0082715
0.00741397
0.00548972
0.00558146
0.00339331
0.00538178
0.00764117
0.00889622
0.00940396
0.00965661
0.00783946
0.00664187
0.00529421
0.00525665
0.00552599
0.005061
0.00669985
0.00784358
0.00812864
0.00782675
0.00676458
0.00616842
0.0048711
0.00495681
0.0189911
0.0226135
0.0227895
0.0256202
0.0264148
0.0264945
0.0256411
0.0253901
0.0256627
0.0228629
0.0166467
0.0182587
0.0156904
0.0142642
0.0120175
0.0112133
0.00940655
0.00865775
0.0084376
0.00880158
0.0135215
0.0139069
0.0110321
0.00986829
0.00850928
0.00745185
0.00660227
0.00605835
0.0060083
0.00640585
0.00917547
0.00982732
0.00855217
0.00864516
0.00922489
0.00947391
0.0091867
0.00771613
0.00694857
0.00750323
0.00636226
0.00676957
0.0069353
0.00905946
0.010405
0.0104177
0.00835049
0.00550776
0.00437908
0.00481586
0.00515188
0.00548463
0.00654622
0.00858693
0.00936452
0.00718906
0.00448338
0.0039803
0.00437471
0.00489745
0.00464674
0.0050628
0.00619695
0.00725428
0.00692993
0.00446502
0.00357117
0.00374907
0.00412772
0.0042623
0.00452437
0.00487156
0.00565196
0.00611081
0.00579283
0.00401226
0.00304331
0.00309884
0.00380956
0.00465066
0.00430377
0.00474838
0.00537493
0.00544608
0.00512721
0.0042033
0.00312524
0.00316202
0.00621967
0.00812136
0.00451401
0.00471576
0.00520448
0.00519828
0.00488021
0.00425813
0.00568982
0.0081713
0.00791967
0.0157276
0.0102538
0.0127655
0.0132122
0.0130444
0.0113127
0.00962075
0.00915691
0.0095114
0.0104234
0.0114869
0.00649954
0.00685819
0.00633842
0.00592535
0.00578173
0.00582127
0.00628337
0.00644555
0.00699224
0.00858519
0.00577895
0.00569345
0.00546735
0.00498953
0.00422994
0.00403533
0.00411467
0.00425463
0.00412249
0.00499777
0.00454725
0.00425728
0.00379983
0.00294035
0.00256361
0.00263761
0.00301826
0.00327966
0.0035436
0.00387458
0.00363959
0.00324716
0.00280393
0.00246907
0.00243199
0.00264959
0.00291726
0.00329671
0.00360777
0.00385627
0.00348129
0.00289746
0.00240007
0.00225805
0.00223463
0.00221949
0.00262996
0.00376206
0.0045723
0.00488454
0.00366725
0.00298482
0.00240435
0.00225992
0.00220802
0.0023279
0.00372599
0.005422
0.00730673
0.00837433
0.00398518
0.00322432
0.00259025
0.00237917
0.00229155
0.00218872
0.00329149
0.00498062
0.00824666
0.0134605
0.00420954
0.00369881
0.00316122
0.00288454
0.00292162
0.00263676
0.00266567
0.0039911
0.00700397
0.0155721
0.00423554
0.00391131
0.00365975
0.0036676
0.00387918
0.0036521
0.00362472
0.00490512
0.00523619
0.00736197
0.00373949
0.00524661
0.00615962
0.00754588
0.00878886
0.0107105
0.0132926
0.0170756
0.0217659
0.0245704
0.00260207
0.00277163
0.00301674
0.00329501
0.00376733
0.00443773
0.00545061
0.00686216
0.00873646
0.00979015
0.00233672
0.00215815
0.00214709
0.00217709
0.00226931
0.0025014
0.00285574
0.00340054
0.00418415
0.00452489
0.00228227
0.00180309
0.00174084
0.0017204
0.00178378
0.00197423
0.00223854
0.00247918
0.00264768
0.00272006
0.00206321
0.00169977
0.00170602
0.00177071
0.00173952
0.00178592
0.00214109
0.00252999
0.00306593
0.00334562
0.00228085
0.00179548
0.0014609
0.0013853
0.00161904
0.00205447
0.00256356
0.00313352
0.00405369
0.00514328
0.00296504
0.00217439
0.00161958
0.00133302
0.00120648
0.00136154
0.00231774
0.00400822
0.00584972
0.00936875
0.00350071
0.00283996
0.00197036
0.00155019
0.00139983
0.00141715
0.00176981
0.0026066
0.00369151
0.0113022
0.00373339
0.00331369
0.0025558
0.00193127
0.00196533
0.00204732
0.00210585
0.00248798
0.00315456
0.0090438
0.00372851
0.00324237
0.00262714
0.00251939
0.00286157
0.00306302
0.00305356
0.00322715
0.00334983
0.00360988
0.00670373
0.0102423
0.0132962
0.0167664
0.0198103
0.0233176
0.0263645
0.0301643
0.0337609
0.0360382
0.00417829
0.00600955
0.00800814
0.0109192
0.0135559
0.0159554
0.0177904
0.0197326
0.0214754
0.0223336
0.00264614
0.00293542
0.00344325
0.00418612
0.00513731
0.00617847
0.00703151
0.00767363
0.00803656
0.00813419
0.00213015
0.00212241
0.00223889
0.00239187
0.00259175
0.00285499
0.00306915
0.00322983
0.00329633
0.00331174
0.00185724
0.00179206
0.00182059
0.00188507
0.00193299
0.00200244
0.0021389
0.00224302
0.0024247
0.00336432
0.00171937
0.00156263
0.00144083
0.0014199
0.00147992
0.00161425
0.00173812
0.00179189
0.00196582
0.00342261
0.00203485
0.00169995
0.00142391
0.00123423
0.00113971
0.00114671
0.00125751
0.00155734
0.00185038
0.00415015
0.00290824
0.00210549
0.00159547
0.00131521
0.0011703
0.00111479
0.00113637
0.00123236
0.00138515
0.0049089
0.00406577
0.00319047
0.00210313
0.0015358
0.00137185
0.00138159
0.00143524
0.00154616
0.00163755
0.00288377
0.00713817
0.00490576
0.00261385
0.00180325
0.00190477
0.00214799
0.00212814
0.00213641
0.0021396
0.00233191
0.00735327
0.00511646
0.00450201
0.00442701
0.00445297
0.00750913
0.0163933
0.030963
0.0365711
0.0318901
0.00492932
0.00746846
0.00896664
0.00996283
0.0122987
0.0185815
0.0260207
0.031422
0.033842
0.0348485
0.00430791
0.00766032
0.0107383
0.0145464
0.0187748
0.0206873
0.0255695
0.0274182
0.0267364
0.0232073
0.00339986
0.00596103
0.00976476
0.0134778
0.0161326
0.0183831
0.0195929
0.0157023
0.0107135
0.0052471
0.0027636
0.00428808
0.00684994
0.00937608
0.0107256
0.0113601
0.0101151
0.00715976
0.00419973
0.00286119
0.00234552
0.00294746
0.00440662
0.00577079
0.00636317
0.00650759
0.00550714
0.00383929
0.00288635
0.00274845
0.00227856
0.00228117
0.00293197
0.00374346
0.00406756
0.00412368
0.00351598
0.00257626
0.00221535
0.00231602
0.00271861
0.00215117
0.0021128
0.00256975
0.00290993
0.00302349
0.00276472
0.00214317
0.00173351
0.0019359
0.00542455
0.00236494
0.002058
0.00191081
0.00202932
0.00216584
0.0021816
0.0020026
0.00169568
0.00174846
0.0111233
0.00333057
0.00205693
0.00183556
0.00192332
0.00204951
0.00211517
0.00199924
0.00348396
0.00350109
0.012201
0.0047544
0.00465457
0.00437669
0.0042278
0.00419006
0.00393664
0.00469354
0.00471569
0.0051256
0.00543388
0.00569099
0.00502378
0.00459362
0.00452191
0.00457627
0.00472203
0.00512349
0.00524124
0.0056014
0.00737189
0.00608444
0.00489107
0.00474909
0.00495687
0.00522077
0.0056676
0.00616308
0.0064498
0.00657605
0.00822274
0.00531874
0.00418502
0.00432786
0.0048166
0.00541201
0.00593652
0.00606147
0.0059088
0.00562506
0.00831883
0.00424279
0.00346497
0.00368471
0.00426255
0.00493746
0.00531705
0.0052796
0.00448432
0.00422982
0.00666565
0.00319971
0.0029776
0.0032011
0.00366563
0.00421561
0.00440211
0.00409221
0.0035616
0.00327051
0.00424863
0.00276951
0.00273997
0.00286607
0.00318777
0.00359296
0.00370141
0.00350622
0.00313272
0.00276327
0.00305326
0.00267556
0.00260782
0.00257495
0.00274508
0.0030167
0.00326886
0.00327263
0.00298471
0.00252743
0.00327766
0.00277143
0.00255228
0.00244148
0.00243228
0.00259092
0.00285577
0.00301821
0.00268547
0.00235527
0.00333634
0.0028939
0.00258233
0.00238122
0.0022501
0.00227332
0.00244602
0.00270807
0.00292312
0.004914
0.0136867
0.0107283
0.00854771
0.00664853
0.00525852
0.00438899
0.0038089
0.00364911
0.00366746
0.00403931
0.0156898
0.013238
0.00913229
0.00640159
0.00472648
0.00388958
0.00354139
0.00342008
0.00343254
0.00346521
0.020139
0.0132712
0.00750348
0.00478861
0.00374913
0.0033694
0.00320272
0.00321265
0.00327892
0.00334703
0.0208346
0.00880634
0.00477615
0.00357663
0.00316012
0.00301698
0.0030199
0.00306449
0.00316737
0.00328232
0.0157546
0.00613671
0.00368907
0.0030472
0.00288539
0.00286903
0.00292436
0.00302735
0.00317911
0.00324228
0.0104868
0.00496921
0.00316837
0.00278364
0.00269603
0.00273331
0.00286485
0.00308131
0.00310303
0.00310581
0.00748265
0.00470956
0.00292907
0.00264182
0.00256794
0.00263867
0.00291749
0.00305401
0.00298497
0.00288915
0.00641863
0.00520359
0.00284269
0.00258143
0.00251383
0.00259617
0.00290298
0.00302569
0.00292586
0.00280015
0.00618518
0.00600291
0.00283073
0.00258132
0.00250726
0.00257359
0.00283879
0.0029748
0.00295588
0.00294872
0.00666478
0.00711469
0.00284653
0.00268627
0.00266714
0.00279223
0.00294474
0.00310307
0.00331553
0.00403811
0.0108479
0.00515289
0.00393975
0.00340529
0.00314031
0.00296479
0.00286516
0.00290116
0.00320735
0.00349209
0.0141237
0.00588141
0.00395201
0.0031926
0.00278408
0.0025565
0.00252078
0.00257646
0.00279184
0.00283731
0.0147524
0.00533035
0.00326274
0.00260141
0.00226654
0.00212408
0.00213461
0.00221398
0.00243054
0.00252236
0.0132633
0.00416437
0.00283311
0.00232196
0.00208664
0.00198871
0.00200541
0.00207487
0.00225923
0.00240733
0.00970966
0.00360754
0.00258284
0.00220643
0.00201868
0.00195362
0.0019798
0.00205464
0.00221148
0.00240156
0.00790105
0.00338696
0.00247194
0.00217314
0.00200511
0.00195608
0.00199321
0.00208124
0.00221716
0.00242846
0.00729056
0.00334891
0.00243501
0.00218487
0.00207963
0.00206676
0.00209331
0.00214445
0.00226281
0.00250616
0.00909367
0.00365331
0.00244226
0.00232384
0.002267
0.00227741
0.0023053
0.00230204
0.00231044
0.00251284
0.0111536
0.00421253
0.00250666
0.00243302
0.00242245
0.00246986
0.00248441
0.00253235
0.00257134
0.00262303
0.0153837
0.00542781
0.00254568
0.00251471
0.0025248
0.00254935
0.00251654
0.00251146
0.00250472
0.0022895
0.00634856
0.00267894
0.00206085
0.00193974
0.00190235
0.00187515
0.00188901
0.0020415
0.0025491
0.00431438
0.011142
0.00327802
0.00206951
0.00187003
0.00180418
0.00175678
0.00175137
0.00179914
0.00201768
0.00210597
0.012734
0.00347863
0.00199137
0.00182364
0.00176726
0.00171143
0.00167592
0.00168905
0.00178321
0.00184155
0.0145533
0.00379141
0.00197499
0.00181725
0.00177718
0.00171357
0.00166119
0.00165671
0.00169229
0.00176907
0.0158426
0.00397293
0.00197065
0.00185316
0.00184117
0.00177728
0.00169005
0.00165925
0.00168599
0.00178045
0.0180687
0.00437591
0.00202091
0.0019102
0.00193636
0.0018767
0.00176828
0.00169604
0.00171189
0.00183627
0.0204471
0.00496284
0.00211771
0.00197562
0.0020598
0.00201157
0.00188023
0.00177442
0.00176085
0.00190476
0.0248666
0.00611101
0.00227035
0.00205581
0.00217399
0.0021403
0.00197608
0.00187048
0.0018303
0.00189755
0.0301187
0.00782352
0.00243654
0.00211032
0.00224328
0.00221327
0.00202346
0.00191927
0.00195901
0.00195242
0.0326913
0.0103636
0.00272705
0.00215912
0.00227959
0.00224287
0.00206408
0.00185397
0.00171968
0.0016468
0.00583595
0.00508478
0.00488623
0.00465155
0.00389018
0.00329312
0.00301834
0.00292402
0.00213199
0.012606
0.0079189
0.00565137
0.00497983
0.00502365
0.00451481
0.00382441
0.00350245
0.00314831
0.00327088
0.00289564
0.00911593
0.00587635
0.0047625
0.00532443
0.00520754
0.00486183
0.0044391
0.00400774
0.00372401
0.00291631
0.0120115
0.00747195
0.00519707
0.00654203
0.00673401
0.0064529
0.00589659
0.00504334
0.00450584
0.00321333
0.0143909
0.0096753
0.00554145
0.00743052
0.00862155
0.00845739
0.00769521
0.00650001
0.00541984
0.00302125
0.0159427
0.0133671
0.00590912
0.0078153
0.0107998
0.011236
0.0105162
0.00883834
0.0071326
0.00367278
0.0173842
0.0182654
0.00625039
0.00789475
0.0128341
0.0148634
0.0148746
0.0129923
0.0109385
0.00677212
0.0194386
0.0251134
0.00679282
0.0075078
0.0137364
0.0191515
0.0212823
0.0200907
0.0184231
0.0147214
0.0203801
0.0340074
0.00796406
0.0069159
0.0139907
0.0211143
0.0290246
0.0320398
0.0318499
0.0313797
0.0209365
0.0413727
0.0099762
0.00595331
0.0134326
0.0214369
0.0317186
0.0419924
0.0470219
0.0445872
0.0148675
0.0158581
0.00517264
0.00401242
0.00336039
0.0030063
0.00269126
0.002443
0.0033565
0.00505033
0.0126254
0.0070701
0.00468567
0.0040025
0.0033658
0.00302842
0.00264857
0.00239651
0.00295889
0.00472516
0.00960131
0.00754855
0.00519907
0.00402404
0.00358625
0.00342271
0.00305777
0.00274542
0.00310606
0.00565818
0.0113506
0.00821363
0.00555289
0.00407482
0.00395137
0.00389815
0.0035134
0.00300647
0.00280107
0.00291013
0.0121386
0.00936851
0.00569314
0.0040301
0.00427979
0.00455567
0.00404944
0.00323963
0.00266706
0.00212256
0.0129581
0.00989525
0.00571138
0.00380497
0.00469364
0.00540855
0.00481476
0.00365879
0.00275709
0.00207664
0.0131885
0.0103295
0.0056253
0.00364019
0.00518843
0.00639825
0.00573114
0.00436731
0.00339463
0.00288967
0.0132033
0.0105132
0.0055941
0.00363894
0.00595855
0.00739729
0.00691473
0.00552635
0.00486088
0.00458968
0.0136991
0.0105733
0.00567802
0.00388794
0.00724206
0.00841705
0.00800862
0.00733613
0.00740599
0.00731071
0.0127956
0.0103233
0.00571828
0.00438698
0.00909343
0.00984997
0.00956015
0.0106335
0.0104144
0.0101651
0.0101623
0.00351641
0.00293122
0.00277099
0.00275905
0.00328716
0.00612025
0.0167817
0.0262364
0.0291228
0.00346544
0.00349741
0.00340895
0.00345183
0.00376755
0.00513383
0.00920624
0.0185371
0.0264602
0.0388889
0.00406107
0.003921
0.00416185
0.00458243
0.00543326
0.00746106
0.0120399
0.020631
0.0278337
0.0343512
0.00432477
0.00416923
0.00462752
0.00557936
0.00718178
0.0101919
0.0149688
0.0211327
0.0251536
0.0239951
0.00454662
0.00432203
0.0047691
0.00601755
0.00807418
0.0113629
0.0154366
0.0187337
0.0185291
0.013956
0.00466777
0.00435518
0.00472242
0.00597872
0.00808475
0.0113507
0.0139451
0.0142799
0.0124698
0.00779606
0.00472452
0.00438931
0.0045444
0.00572054
0.00775965
0.0101595
0.0108588
0.0109234
0.00855709
0.00548128
0.00470339
0.00436857
0.00423589
0.00493557
0.00660895
0.00800312
0.00843882
0.00827931
0.0062452
0.00383566
0.00464576
0.00437656
0.00408801
0.00415996
0.00554295
0.00642689
0.0069313
0.00685966
0.00494126
0.00321346
0.00524123
0.00420013
0.00384418
0.00375439
0.00452473
0.00501152
0.00545676
0.00543954
0.00421441
0.0034688
0.0120379
0.0137593
0.0136346
0.0137865
0.0164696
0.0195258
0.0281066
0.0298958
0.0332633
0.0301352
0.0227893
0.0267321
0.0228665
0.0219238
0.0206508
0.0222079
0.0316008
0.0386822
0.0323493
0.0278742
0.0320408
0.0291967
0.0293565
0.027274
0.0240274
0.0258358
0.0358923
0.0411333
0.0253413
0.0228361
0.0372376
0.038437
0.0378827
0.0329503
0.0292382
0.0325547
0.0401944
0.0395137
0.0209436
0.0269784
0.0452868
0.0596325
0.0591546
0.048045
0.0438154
0.0443661
0.0486175
0.0276152
0.020535
0.0261589
0.0569189
0.0708993
0.07562
0.0696471
0.0591743
0.0543696
0.0436267
0.0196852
0.0190702
0.0219335
0.0529207
0.0662447
0.0692604
0.0653395
0.0560058
0.0516507
0.030067
0.0166948
0.0162152
0.0196394
0.0460924
0.0654409
0.0651808
0.0600491
0.0540103
0.0441601
0.0261034
0.0141788
0.0138077
0.0127531
0.0384694
0.0648478
0.0668283
0.0626887
0.0557347
0.0434524
0.0242023
0.0125116
0.0113539
0.0123554
0.0360824
0.0628587
0.06553
0.0669846
0.0607778
0.0514999
0.0297882
0.0144871
0.0103431
0.0182107
0.155937
0.08242
0.0474839
0.0434844
0.0281273
0.0468416
0.0881275
0.0329572
0.0864596
0.097016
0.101694
0.061234
0.0338221
0.0469724
0.0300914
0.0599484
0.0579265
0.023281
0.0861186
0.0851195
0.151717
0.0926925
0.0976701
0.0386225
0.031352
0.0713615
0.0638387
0.0240765
0.0579112
0.109839
0.0497402
0.114926
0.058772
0.0372581
0.0502209
0.0641109
0.0361181
0.0130628
0.0329133
0.105473
0.0711453
0.0266389
0.0139419
0.0226672
0.0208669
0.0155761
0.0126747
0.0126032
0.0523504
0.0527115
0.0668273
0.0203369
0.00941138
0.00885936
0.0183931
0.0158671
0.0210909
0.0358164
0.109894
0.061097
0.0702607
0.0817761
0.0440866
0.0340763
0.0326408
0.0437768
0.0306519
0.0486685
0.0630728
0.0860071
0.096907
0.0389428
0.0294203
0.0434123
0.0240488
0.0232995
0.0207333
0.0645575
0.0674064
0.101662
0.095783
0.0484418
0.025923
0.0295864
0.0275991
0.0224944
0.0348012
0.0811241
0.0748962
0.103377
0.0973629
0.0706073
0.0542587
0.0249668
0.0253815
0.0387002
0.069436
0.0756848
0.0605607
0.10051
0.0150129
0.0155032
0.0143051
0.0334139
0.0462621
0.0487304
0.0422187
0.0268923
0.0236819
0.0230774
0.0138171
0.016215
0.0226758
0.0399313
0.045541
0.047202
0.0267108
0.0210488
0.0217074
0.0138263
0.0136048
0.0179657
0.0286364
0.0400148
0.0436794
0.0439738
0.0219695
0.0166546
0.0141112
0.0166764
0.0138407
0.0201763
0.0311681
0.0378361
0.0386902
0.0372806
0.0242682
0.0213411
0.0226945
0.0262854
0.014306
0.0213395
0.0318874
0.0370662
0.0391677
0.0391266
0.0385434
0.0352595
0.0350023
0.0329756
0.0170497
0.0248973
0.0336012
0.037427
0.0386257
0.0429712
0.0429985
0.038696
0.0383178
0.0340486
0.0177883
0.0258879
0.0344043
0.0411965
0.0400902
0.0415718
0.0392839
0.040768
0.0368179
0.0301262
0.0198258
0.0344526
0.0390295
0.0338323
0.0317867
0.0339197
0.0337049
0.0361151
0.0302365
0.0304962
0.0213083
0.0336454
0.0358248
0.0385353
0.0299571
0.035421
0.0349814
0.0478201
0.0546273
0.0570083
0.0258907
0.0317778
0.043932
0.0474459
0.0382603
0.034386
0.0384072
0.0481442
0.0496739
0.0478189
0.0153619
0.016545
0.0157928
0.0215808
0.0247343
0.0275694
0.0282749
0.0273651
0.0234072
0.0106158
0.0159851
0.0197454
0.0215012
0.0249372
0.0252434
0.0261141
0.024507
0.0194582
0.0106671
0.00903879
0.0186842
0.0218507
0.0231669
0.0243566
0.0239197
0.0175662
0.0143462
0.00692406
0.00525775
0.00885129
0.0202627
0.0214459
0.0210061
0.0175732
0.0131816
0.00789977
0.00497223
0.00252369
0.00218079
0.00457086
0.0187237
0.015445
0.0112491
0.00658132
0.0044681
0.00306692
0.00266272
0.00222747
0.00183064
0.00104978
0.00947396
0.00657376
0.00433135
0.00311761
0.00223347
0.00182641
0.00170247
0.0022866
0.00168132
0.00084144
0.00394029
0.00293836
0.00245369
0.00232062
0.00202968
0.00111838
0.000741956
0.00179676
0.0012915
0.000939676
0.00220131
0.00211517
0.00242322
0.0031517
0.00357564
0.00149276
0.000735464
0.00124906
0.00118257
0.00123203
0.00131816
0.00190303
0.00290406
0.00535187
0.00611945
0.0024488
0.000650461
0.000879171
0.0012978
0.00182684
0.00578474
0.00224716
0.00447814
0.011243
0.00836645
0.00324871
0.000771883
0.000855296
0.00131786
0.00149205
0.0170537
0.00814889
0.000607695
0.000149787
0.000141172
0.000264847
0.000807911
0.000969929
0.00124134
0.00153277
0.0212384
0.0178438
0.00128467
0.000155422
0.000121244
0.00017574
0.000369337
0.000886458
0.0016488
0.00237024
0.0210577
0.0251727
0.0111452
0.000558128
0.00016027
0.000161563
0.000433511
0.00129093
0.00209051
0.00134638
0.01442
0.0172178
0.0254464
0.0154871
0.00188288
0.00032181
0.0015812
0.0023648
0.00322285
0.000701778
0.00913542
0.00994784
0.0117995
0.0120279
0.00442995
0.0021808
0.00400773
0.00596532
0.00590755
0.000846003
0.0070759
0.00751166
0.00998717
0.0142751
0.011187
0.00646264
0.00392866
0.0070544
0.00557371
0.00117223
0.00777726
0.00867367
0.0102418
0.0139948
0.0125504
0.00637587
0.00143402
0.00564895
0.00482582
0.00189854
0.00654787
0.00891496
0.00978318
0.011979
0.0121904
0.00619715
0.0030576
0.00237014
0.00411395
0.00368787
0.0100042
0.00932267
0.00890141
0.00899428
0.0102473
0.0099708
0.00330755
0.000788044
0.00306645
0.00491852
0.0048598
0.00749829
0.00967337
0.00885496
0.00863351
0.0104303
0.00466624
0.00142122
0.00193053
0.00553242
0.00821079
0.008784
0.016527
0.0149925
0.00773773
0.00426173
0.00330889
0.00367055
0.00640767
0.00699671
0.00786388
0.0145934
0.0132857
0.0145081
0.0204397
0.0191799
0.0123649
0.00843592
0.0111086
0.0140885
0.00300116
0.00701695
0.0104407
0.0101588
0.0126228
0.012379
0.0103433
0.00972833
0.0106313
0.0152958
0.0024691
0.00372746
0.00586562
0.0089768
0.01612
0.0166505
0.0133825
0.0125699
0.0137638
0.0208297
0.00322712
0.00399767
0.00829816
0.0101705
0.0243816
0.0244882
0.0235967
0.0200725
0.0212911
0.0232608
0.0044988
0.00613442
0.00974373
0.0188363
0.0225382
0.0199434
0.0202293
0.0207482
0.022868
0.0168694
0.00536172
0.00595452
0.00830424
0.015478
0.014923
0.0155658
0.0178026
0.018912
0.0150128
0.00900824
0.00419794
0.00430201
0.00469792
0.00604637
0.00695129
0.00977071
0.00995554
0.00877372
0.00626913
0.00514104
0.0029411
0.0029614
0.00314206
0.00332674
0.00355481
0.00382989
0.00415686
0.00394559
0.00386846
0.00389471
0.00232489
0.00256899
0.00272461
0.00286743
0.00308829
0.00325547
0.00338532
0.00354083
0.00375228
0.00508957
0.00405466
0.00583694
0.0128989
0.0126963
0.00670454
0.00384603
0.00253575
0.00216574
0.0025016
0.00315706
0.00197472
0.00698703
0.010239
0.00948518
0.014957
0.0168982
0.0127328
0.00803578
0.00571392
0.00854121
0.0014422
0.00261495
0.00507812
0.00798855
0.00782097
0.00883923
0.00941025
0.00961119
0.00640826
0.00993338
0.00147808
0.00166454
0.00224052
0.00350812
0.00423491
0.00585468
0.00838755
0.00842096
0.00760916
0.00977572
0.00185477
0.00182949
0.0023057
0.00302914
0.0056273
0.00747839
0.0145614
0.0144537
0.0137602
0.0141756
0.00226989
0.00239486
0.0029755
0.00422867
0.00806789
0.00918118
0.0169364
0.0160502
0.0137969
0.0130746
0.00329584
0.00332061
0.0035828
0.00547475
0.00719205
0.0135307
0.0130816
0.0121525
0.0111856
0.0129436
0.00354971
0.00345693
0.00341832
0.00401146
0.00461565
0.00749319
0.00835675
0.00996253
0.0128731
0.0148095
0.00281709
0.00281648
0.00282632
0.00286109
0.00297438
0.00343109
0.0040147
0.00414503
0.00518795
0.00660394
0.00196086
0.00206854
0.00224009
0.00231134
0.00241703
0.0025028
0.00263826
0.00270216
0.00285826
0.00348214
0.00128978
0.00281733
0.00583082
0.00687968
0.00589969
0.00378937
0.00248385
0.00185282
0.00168693
0.00186664
0.000985727
0.00172141
0.00392113
0.00538055
0.00655065
0.0124493
0.0126402
0.00943493
0.00568106
0.00545447
0.000979835
0.00113634
0.00207493
0.00396156
0.00597537
0.00686619
0.00759016
0.00894877
0.00635003
0.0117875
0.00107014
0.00109566
0.00124796
0.00156602
0.00265972
0.00291948
0.00346275
0.00463438
0.00434055
0.0067172
0.00123066
0.00118434
0.0012504
0.00142619
0.00187288
0.00242485
0.00331091
0.00407646
0.00776848
0.00809995
0.00141162
0.00143196
0.0015199
0.0017267
0.00248527
0.0027487
0.00420368
0.00460342
0.0103374
0.00963912
0.00208223
0.00213911
0.0021807
0.00237142
0.00273999
0.00442896
0.00441647
0.00488376
0.00587527
0.00674076
0.00245208
0.00244975
0.00240976
0.00241347
0.00254369
0.00323551
0.00387949
0.00472147
0.00582981
0.00753131
0.00229587
0.0022894
0.00223864
0.0022043
0.00219689
0.00231991
0.00271428
0.00311349
0.00377525
0.00637705
0.00170985
0.00168484
0.00171978
0.00175758
0.00180717
0.00185725
0.00194091
0.00205402
0.00220173
0.00293761
0.000780803
0.00117072
0.00149667
0.00279902
0.00392202
0.00358755
0.00251975
0.00187519
0.00158907
0.00152911
0.000743488
0.000882181
0.00137002
0.00211579
0.00368882
0.0054156
0.0106591
0.00978276
0.00558851
0.00562523
0.000770042
0.000811906
0.00103092
0.00132769
0.0026755
0.00328679
0.00541855
0.00688459
0.00523501
0.00909389
0.000876617
0.000865005
0.000905063
0.000994658
0.00136908
0.00157944
0.00206928