/*--------------------------------*- C++ -*----------------------------------*\
  =========                 |
  \\      /  F ield         | OpenFOAM: The Open Source CFD Toolbox
   \\    /   O peration     | Website:  https://openfoam.org
    \\  /    A nd           | Version:  9
     \\/     M anipulation  |
\*---------------------------------------------------------------------------*/
FoamFile
{
    format      ascii;
    class       volScalarField;
    location    "80";
    object      f21.gas;
}
// * * * * * * * * * * * * * * * * * * * * * * * * * * * * * * * * * * * * * //

dimensions      [0 0 0 0 0 0 0];

internalField   nonuniform List<scalar> 
137980
(
0.872422
0.872928
0.870589
0.86447
0.85702
0.84882
0.839024
0.822185
0.804638
0.763394
0.873998
0.874082
0.870202
0.862691
0.853463
0.843373
0.831544
0.813568
0.791545
0.765744
0.875446
0.875407
0.870919
0.862422
0.852018
0.840421
0.826897
0.808832
0.785233
0.769461
0.87767
0.877418
0.872767
0.86412
0.852793
0.839742
0.824994
0.806977
0.785418
0.775014
0.880202
0.879835
0.875555
0.867503
0.856224
0.84207
0.826502
0.809444
0.790894
0.780728
0.881939
0.881898
0.878753
0.872097
0.862278
0.848698
0.831967
0.815169
0.799756
0.791806
0.88176
0.882451
0.881142
0.876853
0.869312
0.858743
0.8447
0.827934
0.812145
0.802189
0.877991
0.881231
0.881629
0.879989
0.875377
0.867871
0.858043
0.846466
0.835206
0.825149
0.870639
0.877023
0.88029
0.880478
0.879124
0.874189
0.866754
0.857386
0.847865
0.841876
0.864524
0.871341
0.876338
0.879151
0.879805
0.878642
0.873849
0.865371
0.855787
0.845598
0.872108
0.871967
0.868524
0.860793
0.850416
0.836751
0.814162
0.801543
0.804838
0.747396
0.873353
0.872665
0.867245
0.857596
0.844864
0.827569
0.799796
0.78688
0.786168
0.740069
0.87475
0.873589
0.867082
0.856322
0.842147
0.82172
0.7891
0.770345
0.765136
0.731977
0.87689
0.87538
0.868693
0.857343
0.841516
0.818924
0.782304
0.752631
0.743004
0.725571
0.879014
0.877698
0.871593
0.860769
0.844527
0.820894
0.785681
0.744686
0.727012
0.71692
0.879787
0.879318
0.875277
0.866051
0.851218
0.828325
0.795481
0.750311
0.727074
0.718433
0.877526
0.8788
0.878038
0.872102
0.860274
0.841785
0.813919
0.771691
0.732658
0.719906
0.868093
0.875266
0.877369
0.876347
0.869013
0.855754
0.836174
0.808695
0.769069
0.73828
0.853849
0.866398
0.873748
0.876824
0.874861
0.866277
0.852646
0.834197
0.813222
0.790574
0.849855
0.859366
0.867394
0.874461
0.87685
0.873995
0.865798
0.852127
0.833791
0.828946
0.871746
0.870618
0.865289
0.855194
0.841098
0.817919
0.789372
0.789528
0.79897
0.717001
0.872601
0.870268
0.86224
0.849316
0.830217
0.797688
0.772599
0.773789
0.783102
0.713589
0.873604
0.870276
0.860857
0.845672
0.822141
0.782421
0.756996
0.757072
0.767252
0.709966
0.875265
0.871272
0.861156
0.844563
0.818119
0.772646
0.741861
0.738225
0.746673
0.707918
0.876431
0.873079
0.863557
0.846685
0.818341
0.768857
0.729286
0.721836
0.726774
0.702627
0.875757
0.874365
0.867617
0.852393
0.825098
0.77606
0.720883
0.704147
0.711031
0.698347
0.87047
0.873144
0.871024
0.860174
0.836881
0.795126
0.725897
0.692097
0.686238
0.69118
0.855767
0.868369
0.871247
0.866623
0.850302
0.817994
0.753945
0.694161
0.673981
0.670267
0.840362
0.855794
0.867064
0.869196
0.860895
0.837918
0.796268
0.722428
0.680979
0.664558
0.838636
0.84878
0.858421
0.868992
0.867542
0.853411
0.824372
0.781031
0.740354
0.740706
0.87023
0.866637
0.857662
0.84344
0.818998
0.771332
0.764794
0.781679
0.764275
0.640074
0.869755
0.863505
0.850339
0.828655
0.784721
0.75054
0.751158
0.76317
0.748466
0.628998
0.869505
0.861349
0.845184
0.81792
0.76661
0.735858
0.735798
0.747361
0.735274
0.626337
0.869696
0.860623
0.842956
0.812737
0.756997
0.723352
0.720893
0.732177
0.727061
0.628664
0.869647
0.86133
0.843895
0.812548
0.754475
0.713115
0.706774
0.71936
0.721272
0.636233
0.868568
0.862758
0.848407
0.8189
0.761424
0.706907
0.693675
0.705298
0.71341
0.653027
0.864061
0.863255
0.853811
0.829569
0.778752
0.707926
0.683025
0.687648
0.697678
0.665815
0.852273
0.860185
0.857122
0.840372
0.800154
0.720189
0.679925
0.669471
0.682416
0.667867
0.839452
0.851884
0.856622
0.848518
0.819318
0.751677
0.684283
0.659111
0.652793
0.648783
0.837516
0.846373
0.852618
0.854067
0.833833
0.779262
0.706184
0.669996
0.653942
0.661358
0.862356
0.852253
0.829117
0.799382
0.772743
0.767734
0.783346
0.775003
0.658887
0.552995
0.856701
0.838274
0.796646
0.761517
0.750835
0.756238
0.761951
0.741287
0.608195
0.561663
0.852017
0.826773
0.775425
0.741953
0.733358
0.738721
0.736291
0.694717
0.599921
0.599297
0.848586
0.821261
0.765348
0.727332
0.717501
0.719589
0.712951
0.66398
0.603133
0.634968
0.847012
0.820659
0.766706
0.718385
0.703687
0.701638
0.694637
0.651091
0.606541
0.628606
0.847285
0.825298
0.778664
0.717142
0.692481
0.687283
0.68256
0.654059
0.611389
0.614545
0.84728
0.832483
0.795879
0.726257
0.687179
0.673996
0.672954
0.658187
0.621364
0.614491
0.843736
0.837555
0.811866
0.752618
0.690625
0.665895
0.661471
0.658018
0.635929
0.623539
0.837855
0.83896
0.824086
0.783163
0.706153
0.666469
0.649804
0.651091
0.636015
0.624409
0.837073
0.838662
0.830987
0.80436
0.731722
0.674376
0.648137
0.635052
0.626424
0.616295
0.822792
0.819754
0.818588
0.809897
0.792374
0.793996
0.788012
0.697317
0.559155
0.557243
0.794056
0.783382
0.778402
0.77437
0.772617
0.769235
0.72718
0.615478
0.58423
0.672494
0.77037
0.758343
0.753238
0.750349
0.744858
0.719473
0.65177
0.621648
0.661897
0.753267
0.754227
0.737346
0.729892
0.723634
0.708232
0.672367
0.646297
0.648403
0.746311
0.79751
0.743868
0.720258
0.708488
0.696747
0.677068
0.657863
0.653072
0.69571
0.776512
0.809676
0.74291
0.708251
0.688426
0.675247
0.663724
0.657339
0.669539
0.725959
0.782135
0.80064
0.75018
0.707936
0.676504
0.663068
0.656795
0.657113
0.676053
0.731365
0.773438
0.765469
0.768295
0.714901
0.678052
0.657512
0.650052
0.655516
0.675526
0.725856
0.754974
0.715276
0.786756
0.734285
0.686188
0.659467
0.648112
0.650585
0.667234
0.707499
0.734268
0.707416
0.805149
0.76514
0.705174
0.666656
0.648848
0.642449
0.652212
0.667487
0.683189
0.675101
0.817646
0.807134
0.800951
0.786861
0.766186
0.713253
0.627298
0.603559
0.657368
0.680128
0.787006
0.782072
0.772747
0.751318
0.700975
0.653874
0.632957
0.672438
0.736574
0.756719
0.762441
0.75812
0.740359
0.704054
0.668061
0.652189
0.670307
0.747969
0.782912
0.801714
0.736975
0.729013
0.7031
0.678451
0.664087
0.668722
0.728437
0.785704
0.809969
0.821323
0.711448
0.699756
0.680352
0.670346
0.669507
0.69982
0.770521
0.803878
0.814443
0.816279
0.691181
0.678983
0.67073
0.668261
0.681336
0.732326
0.786597
0.803028
0.802501
0.776139
0.678911
0.669526
0.665386
0.66864
0.693108
0.749468
0.785875
0.794321
0.770587
0.721278
0.674933
0.664474
0.661339
0.66702
0.692453
0.748443
0.780095
0.784258
0.753008
0.697727
0.678484
0.664238
0.659202
0.664315
0.686225
0.738735
0.76925
0.776349
0.751183
0.699758
0.681151
0.665288
0.659352
0.659169
0.671891
0.71409
0.743761
0.757695
0.742216
0.704079
0.690966
0.684236
0.695501
0.701431
0.715732
0.728943
0.742221
0.751686
0.756686
0.761177
0.712294
0.713001
0.730842
0.739731
0.756726
0.77148
0.785337
0.794598
0.801251
0.804906
0.723972
0.730564
0.745479
0.755687
0.77464
0.788444
0.799604
0.806978
0.810309
0.813962
0.727782
0.736143
0.749707
0.76673
0.785742
0.797808
0.804578
0.806932
0.805042
0.802012
0.724593
0.734798
0.750847
0.772643
0.790412
0.799395
0.801256
0.790983
0.775469
0.76799
0.714884
0.727788
0.748315
0.773429
0.791938
0.800707
0.798809
0.778663
0.753922
0.740018
0.702869
0.717151
0.74185
0.770531
0.793021
0.804065
0.803251
0.783471
0.748766
0.729372
0.691994
0.704856
0.731601
0.762569
0.788967
0.803897
0.809464
0.799931
0.763992
0.725772
0.685734
0.693395
0.715991
0.745559
0.776501
0.797489
0.807294
0.804233
0.786832
0.732589
0.681833
0.683175
0.701185
0.72369
0.743747
0.771706
0.787188
0.780405
0.767644
0.723623
0.732637
0.725817
0.737297
0.742384
0.752067
0.759433
0.767282
0.771183
0.774303
0.774801
0.752085
0.753297
0.766876
0.772858
0.780987
0.784202
0.78616
0.787253
0.789198
0.79062
0.770338
0.777426
0.790914
0.796623
0.799912
0.799544
0.795424
0.791555
0.789549
0.788136
0.779246
0.795004
0.808052
0.813918
0.815367
0.811243
0.800204
0.789396
0.78058
0.776412
0.777789
0.802735
0.81817
0.82522
0.827219
0.822624
0.80773
0.78825
0.773482
0.767355
0.76817
0.798654
0.818135
0.830834
0.835739
0.834824
0.822293
0.794748
0.770697
0.76218
0.748867
0.784575
0.811772
0.827019
0.835864
0.83872
0.831969
0.814407
0.782819
0.760795
0.726798
0.765864
0.796363
0.814047
0.823136
0.830079
0.828911
0.820915
0.797705
0.760313
0.711983
0.743827
0.769786
0.786829
0.790702
0.800256
0.807469
0.804216
0.793668
0.757044
0.701715
0.727205
0.748473
0.750427
0.745869
0.764777
0.775315
0.771783
0.764573
0.749177
0.739439
0.731523
0.730849
0.731581
0.733966
0.736222
0.738065
0.738967
0.737731
0.736918
0.766377
0.762644
0.762651
0.763544
0.765464
0.76678
0.769212
0.771114
0.774016
0.777151
0.78318
0.785439
0.788267
0.789245
0.78925
0.788049
0.786741
0.786046
0.786326
0.788374
0.798398
0.807255
0.811329
0.813813
0.813737
0.809801
0.803184
0.79685
0.791961
0.789986
0.800442
0.817805
0.825804
0.830347
0.832103
0.829483
0.820214
0.807179
0.793447
0.786785
0.794398
0.81411
0.829697
0.838821
0.842198
0.841944
0.836479
0.824665
0.803586
0.784066
0.770251
0.80172
0.82439
0.837175
0.844052
0.844819
0.841099
0.83078
0.811813
0.781222
0.7487
0.780185
0.812183
0.829258
0.836229
0.836143
0.833622
0.826781
0.81461
0.780939
0.739938
0.763032
0.793003
0.814292
0.813363
0.810172
0.808677
0.803986
0.796289
0.773171
0.736037
0.759148
0.784797
0.787618
0.775228
0.773893
0.778524
0.777192
0.775223
0.769826
0.69753
0.676062
0.667224
0.660421
0.657855
0.659299
0.664309
0.670583
0.674826
0.681077
0.730166
0.721326
0.717186
0.714057
0.713322
0.716836
0.722907
0.730993
0.737045
0.745462
0.745154
0.741272
0.740075
0.740359
0.742808
0.746281
0.752368
0.759915
0.767264
0.777047
0.767825
0.767263
0.767048
0.767101
0.76815
0.770134
0.773427
0.777042
0.782644
0.790956
0.785042
0.790265
0.792788
0.794614
0.795993
0.797005
0.797587
0.798058
0.79977
0.800388
0.793272
0.801955
0.810492
0.815263
0.818573
0.821025
0.821718
0.820015
0.819166
0.812471
0.781231
0.798253
0.81383
0.824291
0.830684
0.833928
0.835052
0.833474
0.831834
0.821077
0.759403
0.784081
0.807875
0.823143
0.831519
0.835022
0.835841
0.835231
0.833084
0.821532
0.749745
0.761465
0.791984
0.815486
0.823449
0.82531
0.823605
0.820968
0.816873
0.80306
0.746454
0.755059
0.782149
0.804631
0.804146
0.801625
0.802464
0.801846
0.800691
0.791693
0.755815
0.760781
0.788723
0.801548
0.807359
0.805581
0.789306
0.752064
0.688111
0.629963
0.71732
0.738807
0.75608
0.767205
0.768737
0.752967
0.714296
0.678367
0.663667
0.664199
0.702405
0.704261
0.712865
0.714776
0.710368
0.698423
0.688277
0.685265
0.702413
0.751634
0.701803
0.69851
0.699119
0.698935
0.698719
0.697396
0.700273
0.72406
0.771259
0.79472
0.714077
0.703875
0.70229
0.703525
0.705697
0.711701
0.731903
0.76996
0.794504
0.806253
0.735408
0.719036
0.714183
0.714311
0.720253
0.734183
0.75969
0.788891
0.802789
0.808069
0.74377
0.738092
0.73132
0.730512
0.735768
0.750805
0.776722
0.802802
0.81322
0.814235
0.739752
0.750955
0.74868
0.746808
0.748365
0.75763
0.777122
0.802293
0.816816
0.818302
0.72918
0.750243
0.759322
0.76338
0.765085
0.768324
0.776402
0.796225
0.812471
0.811122
0.734383
0.741381
0.765748
0.774814
0.773504
0.7728
0.775257
0.783617
0.798197
0.800017
0.632812
0.644644
0.668113
0.689458
0.698944
0.688802
0.699101
0.731962
0.757683
0.785564
0.666705
0.684423
0.699797
0.714013
0.720239
0.717059
0.70206
0.702602
0.715071
0.740472
0.687955
0.698214
0.709497
0.72052
0.724253
0.720885
0.710992
0.699086
0.70544
0.730321
0.705527
0.710679
0.721171
0.729483
0.728709
0.72325
0.71326
0.705755
0.713982
0.739397
0.711711
0.717152
0.728652
0.734502
0.732948
0.72655
0.721106
0.720363
0.733862
0.752197
0.71569
0.726199
0.739064
0.741054
0.737575
0.733706
0.73266
0.733762
0.746538
0.757807
0.720113
0.732689
0.744149
0.747074
0.744437
0.742502
0.742214
0.744372
0.752868
0.761538
0.72774
0.73566
0.747469
0.753832
0.753075
0.751749
0.749828
0.750028
0.757414
0.768221
0.738951
0.736743
0.748919
0.758938
0.762384
0.76215
0.760149
0.758022
0.764779
0.769382
0.755084
0.744176
0.751131
0.761519
0.766224
0.767563
0.765515
0.761109
0.764697
0.766844
0.601459
0.6233
0.638719
0.663218
0.693937
0.715673
0.726622
0.727191
0.725645
0.720346
0.651381
0.668091
0.683583
0.70392
0.725033
0.74122
0.747835
0.747738
0.744433
0.74344
0.674251
0.685965
0.701431
0.721561
0.740629
0.755635
0.763685
0.762562
0.757499
0.753865
0.684092
0.699036
0.718029
0.742123
0.761674
0.773042
0.773665
0.77031
0.762953
0.758152
0.693453
0.70948
0.735214
0.757934
0.772861
0.779014
0.776785
0.771195
0.76387
0.759115
0.702537
0.720345
0.747458
0.767342
0.779266
0.781165
0.777283
0.769932
0.764481
0.76005
0.712075
0.727339
0.753132
0.772062
0.781943
0.782283
0.77586
0.768926
0.765132
0.762429
0.720104
0.73062
0.755377
0.773848
0.782658
0.782366
0.774306
0.76692
0.764648
0.763495
0.727423
0.732755
0.756025
0.772591
0.779924
0.779975
0.771924
0.763336
0.759107
0.75471
0.733414
0.737415
0.758192
0.769272
0.773085
0.769886
0.763288
0.757463
0.755022
0.757453
0.680309
0.702435
0.727833
0.746391
0.758494
0.770382
0.778186
0.776166
0.76564
0.758569
0.675889
0.70293
0.734613
0.759476
0.776928
0.7886
0.792946
0.791469
0.784496
0.780615
0.68649
0.718619
0.752857
0.779403
0.797998
0.808159
0.809228
0.806747
0.799385
0.79487
0.692681
0.726899
0.762767
0.793443
0.810572
0.817775
0.81791
0.81521
0.807759
0.800312
0.70421
0.741668
0.775864
0.802591
0.815823
0.821106
0.820763
0.817661
0.81068
0.800304
0.712826
0.749028
0.781483
0.805735
0.817271
0.821461
0.820872
0.817182
0.810131
0.799106
0.722012
0.756286
0.783938
0.806069
0.814647
0.816763
0.816968
0.814636
0.808068
0.795824
0.726143
0.759582
0.78435
0.800649
0.805612
0.806176
0.807274
0.808009
0.804421
0.792386
0.728042
0.762497
0.782533
0.793462
0.79541
0.791791
0.791912
0.792717
0.790736
0.78351
0.725961
0.763694
0.781507
0.787696
0.786344
0.780268
0.779213
0.781222
0.784984
0.787915
0.70902
0.744877
0.767066
0.783919
0.794071
0.803634
0.809621
0.804685
0.78905
0.766104
0.697878
0.740897
0.769055
0.790435
0.803855
0.813061
0.818177
0.816723
0.808838
0.805191
0.702049
0.749318
0.779033
0.799684
0.811604
0.819779
0.824626
0.824396
0.82092
0.817431
0.704646
0.752982
0.783228
0.803818
0.814974
0.822406
0.827149
0.828692
0.827224
0.823343
0.711231
0.760982
0.788641
0.806245
0.816016
0.822806
0.827506
0.829891
0.829009
0.824079
0.714678
0.764807
0.791089
0.80668
0.814865
0.820191
0.824996
0.828563
0.827992
0.821072
0.719656
0.771032
0.793415
0.805444
0.809757
0.81344
0.81878
0.823931
0.824805
0.81714
0.720801
0.77366
0.79425
0.80158
0.802351
0.803835
0.809167
0.81513
0.818091
0.815292
0.719489
0.77657
0.79534
0.798621
0.795451
0.795066
0.798907
0.803292
0.803374
0.801176
0.718877
0.777475
0.796458
0.79661
0.791241
0.79036
0.79349
0.797406
0.800595
0.80714
0.67672
0.692974
0.709859
0.728534
0.741375
0.7518
0.75585
0.759996
0.766849
0.777793
0.669388
0.68743
0.706057
0.728732
0.744011
0.754659
0.763375
0.768493
0.778967
0.784543
0.669123
0.686483
0.702618
0.725698
0.743345
0.755348
0.767176
0.777459
0.787776
0.804113
0.670222
0.686003
0.697839
0.717065
0.736425
0.753236
0.769361
0.783828
0.798622
0.817711
0.673577
0.687771
0.695938
0.710715
0.729531
0.748764
0.769257
0.785922
0.802809
0.824968
0.677229
0.691286
0.695447
0.704625
0.721562
0.740857
0.765017
0.784479
0.802633
0.825723
0.678849
0.69827
0.698199
0.701891
0.713502
0.729963
0.753462
0.77574
0.792821
0.816294
0.67378
0.706786
0.707017
0.701328
0.709279
0.717529
0.73815
0.761214
0.776927
0.794385
0.665825
0.712477
0.722287
0.704306
0.707715
0.709781
0.715679
0.737819
0.755006
0.765962
0.662381
0.714877
0.743328
0.714981
0.70884
0.707461
0.702362
0.701238
0.711277
0.72489
0.65408
0.696178
0.722747
0.733006
0.742343
0.751497
0.763797
0.77732
0.779821
0.772198
0.660385
0.700735
0.721605
0.73251
0.743508
0.754448
0.768773
0.78259
0.784659
0.780604
0.660214
0.701708
0.724388
0.733942
0.743835
0.75482
0.770199
0.784704
0.790318
0.790396
0.657014
0.704053
0.727362
0.734675
0.743013
0.754222
0.770648
0.787229
0.796789
0.800257
0.658428
0.709495
0.733264
0.737416
0.741532
0.751701
0.770291
0.788547
0.800326
0.808559
0.666803
0.716815
0.738527
0.739575
0.739285
0.747272
0.767867
0.788905
0.80247
0.814904
0.671782
0.725809
0.745203
0.743097
0.737681
0.742789
0.763259
0.788002
0.80166
0.813234
0.67886
0.733385
0.75174
0.746442
0.736945
0.740461
0.758277
0.783384
0.795027
0.802679
0.681253
0.739278
0.759206
0.751295
0.737762
0.739755
0.755975
0.779806
0.790964
0.801156
0.682777
0.74328
0.765688
0.756094
0.741836
0.741847
0.755066
0.775597
0.790541
0.802665
0.712739
0.749568
0.764961
0.771103
0.773729
0.774173
0.767792
0.743935
0.729135
0.72394
0.723317
0.744256
0.754949
0.761147
0.76369
0.763082
0.755703
0.737039
0.724381
0.702345
0.7097
0.734669
0.744749
0.750975
0.753118
0.751514
0.74212
0.72422
0.709308
0.695956
0.692424
0.722133
0.734963
0.740598
0.741636
0.737121
0.726386
0.715359
0.710043
0.717258
0.676906
0.709847
0.725501
0.731385
0.732204
0.728128
0.721496
0.717842
0.722278
0.750101
0.667723
0.69639
0.715964
0.723827
0.726229
0.724734
0.722997
0.725306
0.739593
0.764227
0.661771
0.68569
0.706308
0.716373
0.72231
0.724667
0.727269
0.734772
0.75206
0.769346
0.662024
0.675997
0.696774
0.710498
0.717417
0.725087
0.732005
0.741955
0.759378
0.777236
0.665545
0.671348
0.687845
0.703545
0.71179
0.723229
0.732613
0.746489
0.766523
0.778027
0.671764
0.670531
0.684481
0.700541
0.707816
0.717041
0.728945
0.745505
0.766111
0.769261
0.797824
0.79526
0.811187
0.818348
0.821633
0.816719
0.799177
0.785228
0.772078
0.764665
0.777908
0.783326
0.802501
0.808881
0.812712
0.807306
0.788967
0.770271
0.765245
0.7512
0.758276
0.77841
0.790605
0.797257
0.801577
0.796093
0.777196
0.758797
0.757699
0.751802
0.742976
0.760284
0.772155
0.781623
0.786425
0.7809
0.761679
0.746195
0.757015
0.756213
0.72839
0.728207
0.738222
0.753673
0.759524
0.753465
0.736505
0.751304
0.758132
0.771499
0.71069
0.708466
0.70981
0.718883
0.72874
0.729842
0.734922
0.756078
0.762192
0.787874
0.71215
0.706711
0.708271
0.713405
0.722599
0.724388
0.742764
0.757912
0.770305
0.793252
0.716568
0.701148
0.704915
0.710687
0.716788
0.724582
0.742996
0.758781
0.772688
0.800157
0.72058
0.690482
0.692932
0.699059
0.70741
0.721062
0.74075
0.757136
0.772336
0.799383
0.718284
0.68741
0.687858
0.686431
0.693784
0.705223
0.728888
0.748532
0.767537
0.789247
0.703582
0.790803
0.824143
0.810233
0.811261
0.785034
0.731113
0.803335
0.784696
0.784635
0.764437
0.809198
0.829835
0.802456
0.81035
0.770064
0.766149
0.813101
0.772749
0.790996
0.686542
0.757839
0.745286
0.806259
0.81025
0.760509
0.76411
0.815738
0.805321
0.761246
0.807628
0.722206
0.786558
0.809778
0.793973
0.774743
0.804667
0.839336
0.832432
0.76381
0.789531
0.822483
0.839643
0.831267
0.833308
0.840416
0.847793
0.853403
0.811123
0.821185
0.797541
0.838278
0.853812
0.855993
0.847256
0.851577
0.847839
0.832566
0.745201
0.812827
0.796928
0.768622
0.813512
0.826069
0.830122
0.819279
0.83545
0.81774
0.805655
0.783663
0.770675
0.818226
0.828148
0.813668
0.83715
0.840561
0.845844
0.801965
0.80459
0.767151
0.775501
0.810391
0.836268
0.833646
0.834331
0.83902
0.82803
0.783265
0.795806
0.763873
0.774216
0.792851
0.810459
0.841982
0.840017
0.822399
0.79014
0.791029
0.812579
0.767596
0.887115
0.883222
0.883528
0.863387
0.852676
0.857232
0.871684
0.890968
0.895341
0.89624
0.887343
0.882657
0.875502
0.8592
0.85859
0.86473
0.889994
0.897009
0.896175
0.90623
0.887104
0.881224
0.870165
0.861704
0.864239
0.870362
0.895781
0.902011
0.90586
0.9035
0.886972
0.879739
0.869424
0.866318
0.87129
0.877666
0.893435
0.897596
0.896802
0.892839
0.886868
0.879256
0.869873
0.86823
0.870744
0.875236
0.877746
0.882651
0.882705
0.884321
0.8847
0.876632
0.869865
0.868799
0.870821
0.869804
0.871715
0.876605
0.877174
0.882482
0.885006
0.877038
0.870314
0.865877
0.868986
0.869011
0.873161
0.872459
0.878273
0.887531
0.883833
0.869558
0.868391
0.881786
0.883008
0.879415
0.879911
0.878059
0.888097
0.888649
0.88333
0.876435
0.881807
0.880384
0.889647
0.882475
0.882325
0.86934
0.863294
0.861232
0.880937
0.880834
0.874286
0.870457
0.88071
0.883665
0.879686
0.87185
0.872097
0.875715
0.876259
0.873091
0.873168
0.866967
0.864162
0.862394
0.864736
0.871762
0.884446
0.902197
0.876512
0.871949
0.870351
0.867514
0.869029
0.87215
0.880693
0.892263
0.905809
0.909443
0.876526
0.873825
0.873923
0.875593
0.880915
0.893333
0.901564
0.912672
0.915958
0.912745
0.880485
0.880988
0.885808
0.893608
0.902543
0.911869
0.917639
0.921357
0.922052
0.91851
0.891547
0.897479
0.906351
0.913454
0.919242
0.922388
0.924006
0.924837
0.925005
0.924607
0.908638
0.91426
0.919851
0.922761
0.925878
0.927146
0.928185
0.927539
0.927488
0.92736
0.920717
0.924611
0.927604
0.92952
0.930783
0.9318
0.931674
0.929939
0.929563
0.929423
0.927423
0.92917
0.930633
0.930636
0.930439
0.933082
0.933049
0.931693
0.931392
0.931086
0.929567
0.930574
0.930336
0.927912
0.927217
0.932054
0.933723
0.932835
0.932008
0.931564
0.923961
0.929974
0.928648
0.921451
0.924511
0.931184
0.934053
0.933102
0.93262
0.935605
0.906395
0.918179
0.926202
0.926956
0.926904
0.925584
0.92339
0.921833
0.920104
0.91744
0.902444
0.909043
0.92672
0.928123
0.92769
0.926132
0.924767
0.922819
0.919776
0.915033
0.902048
0.901535
0.917271
0.928391
0.928247
0.927078
0.925559
0.923042
0.919549
0.915542
0.906533
0.908568
0.902172
0.913334
0.927111
0.927952
0.925392
0.922708
0.919668
0.919432
0.907169
0.911999
0.913975
0.915896
0.924502
0.926822
0.924202
0.920583
0.91943
0.924443
0.906859
0.91054
0.91181
0.911004
0.916721
0.922856
0.925767
0.922019
0.923544
0.929647
0.905734
0.907817
0.90898
0.908638
0.913806
0.922754
0.929672
0.926514
0.92833
0.932998
0.908373
0.907826
0.909131
0.909483
0.91253
0.922432
0.928691
0.932023
0.931728
0.933105
0.90726
0.908707
0.910603
0.912432
0.913797
0.917575
0.928322
0.934378
0.93381
0.932575
0.916759
0.913902
0.912017
0.913671
0.915554
0.916545
0.926418
0.933654
0.935258
0.932222
0.84804
0.844981
0.833405
0.829173
0.832011
0.830486
0.82245
0.805653
0.784925
0.791829
0.846209
0.838379
0.837159
0.83151
0.820148
0.815587
0.814968
0.805009
0.782896
0.783724
0.842286
0.84199
0.838552
0.8361
0.828989
0.823528
0.81786
0.804569
0.784168
0.781605
0.830367
0.836095
0.838089
0.834943
0.824267
0.817473
0.812806
0.798621
0.779676
0.77477
0.81875
0.824961
0.82725
0.827151
0.810317
0.803651
0.793109
0.782357
0.770926
0.772119
0.79467
0.80213
0.806825
0.801652
0.795193
0.790527
0.779014
0.770217
0.767899
0.778887
0.764312
0.775925
0.780329
0.775151
0.774354
0.770226
0.767242
0.768172
0.776626
0.789937
0.766393
0.771982
0.77353
0.774649
0.776199
0.775788
0.77814
0.783291
0.791525
0.799906
0.792361
0.791623
0.788988
0.788582
0.788729
0.791023
0.794197
0.798275
0.803267
0.809239
0.819145
0.81192
0.806297
0.803446
0.802663
0.80382
0.80655
0.810074
0.814841
0.820395
0.861136
0.856468
0.846957
0.84375
0.846287
0.846554
0.844387
0.839426
0.829521
0.814891
0.862344
0.856073
0.850097
0.847971
0.838742
0.833931
0.834326
0.834159
0.827854
0.811535
0.857522
0.85794
0.854723
0.849376
0.846357
0.842036
0.837524
0.832363
0.827672
0.811567
0.849756
0.852415
0.853952
0.852331
0.849344
0.844317
0.837733
0.832074
0.825282
0.810554
0.8433
0.845448
0.847958
0.848549
0.845484
0.841048
0.829194
0.822999
0.814892
0.80328
0.831185
0.832887
0.835775
0.837492
0.835236
0.832832
0.820702
0.81484
0.808289
0.801463
0.805103
0.808617
0.814199
0.817143
0.818427
0.812013
0.809352
0.805199
0.802109
0.799274
0.794654
0.798194
0.802449
0.804928
0.805502
0.802551
0.800832
0.799217
0.797556
0.798719
0.802692
0.80303
0.802992
0.803575
0.804202
0.804699
0.805536
0.807309
0.809491
0.811929
0.825924
0.821059
0.815224
0.812904
0.812324
0.813008
0.814806
0.817259
0.821018
0.823634
0.86673
0.862975
0.857095
0.853517
0.852049
0.852132
0.851789
0.850417
0.847839
0.840751
0.868019
0.866527
0.86193
0.857342
0.853645
0.845114
0.843057
0.843818
0.844458
0.838665
0.865678
0.865794
0.863763
0.859366
0.854395
0.851031
0.847964
0.843832
0.843232
0.83269
0.859879
0.861044
0.861743
0.860606
0.857315
0.854464
0.851278
0.847211
0.844387
0.836843
0.856283
0.856548
0.85711
0.857304
0.855995
0.853666
0.850311
0.846628
0.839299
0.833654
0.850148
0.849284
0.849252
0.84963
0.849319
0.848757
0.846104
0.843327
0.833825
0.829908
0.83357
0.832321
0.833119
0.834706
0.836578
0.836545
0.836881
0.835389
0.832146
0.82886
0.822993
0.822965
0.824074
0.826054
0.828012
0.828661
0.828525
0.827832
0.826064
0.823578
0.823609
0.823818
0.824455
0.825522
0.82658
0.827438
0.827579
0.827505
0.827402
0.825174
0.834426
0.835085
0.833756
0.832485
0.831576
0.831156
0.831289
0.83178
0.833329
0.832331
0.866304
0.863983
0.860141
0.856682
0.853719
0.852901
0.853385
0.853488
0.853582
0.851656
0.86997
0.869246
0.86622
0.862537
0.858692
0.855332
0.848734
0.848634
0.851554
0.84926
0.869784
0.869588
0.868
0.864991
0.86111
0.858517
0.854656
0.851741
0.851804
0.845639
0.866463
0.866493
0.86618
0.864563
0.862014
0.85974
0.857281
0.854517
0.852828
0.849641
0.863589
0.863105
0.862311
0.861399
0.859848
0.858081
0.85631
0.854429
0.852039
0.849051
0.860364
0.858371
0.856381
0.85488
0.853747
0.852783
0.851989
0.851457
0.849848
0.846648
0.851656
0.847118
0.844761
0.844127
0.844168
0.844654
0.845741
0.846441
0.846237
0.845486
0.842037
0.839267
0.838639
0.838855
0.839788
0.841179
0.842277
0.843105
0.843335
0.842795
0.840067
0.838935
0.838956
0.839406
0.840317
0.841376
0.842301
0.842933
0.843272
0.842599
0.842568
0.843471
0.844483
0.844942
0.845088
0.845115
0.845256
0.845334
0.845877
0.845127
0.862151
0.860467
0.856075
0.853562
0.851529
0.851119
0.851923
0.853503
0.855385
0.856593
0.869361
0.868968
0.866076
0.862732
0.860057
0.858763
0.857054
0.853772
0.856963
0.852307
0.871716
0.871481
0.869594
0.866504
0.863882
0.862161
0.860535
0.85809
0.858283
0.853097
0.871068
0.870577
0.869068
0.866678
0.864348
0.862593
0.86126
0.859739
0.858854
0.856985
0.868937
0.867685
0.86588
0.863815
0.861831
0.860263
0.85914
0.858213
0.857394
0.856263
0.866848
0.864395
0.860799
0.857706
0.85567
0.854429
0.853916
0.854111
0.854468
0.854551
0.862091
0.856555
0.852347
0.850027
0.849013
0.848885
0.849819
0.851199
0.852322
0.853069
0.854639
0.850104
0.847786
0.84688
0.846833
0.847634
0.84918
0.850648
0.851667
0.85227
0.851343
0.848799
0.847775
0.847585
0.84809
0.849147
0.850451
0.851602
0.852317
0.852479
0.848749
0.848959
0.849618
0.850337
0.850901
0.851626
0.852719
0.853692
0.854346
0.854079
0.852191
0.852476
0.848174
0.845287
0.844876
0.845932
0.848254
0.851918
0.856384
0.860075
0.864706
0.865888
0.863428
0.859999
0.858462
0.858425
0.859036
0.85669
0.858433
0.853918
0.871128
0.871407
0.869643
0.866602
0.864666
0.863988
0.863659
0.862704
0.862741
0.860593
0.873472
0.872923
0.870749
0.868037
0.866001
0.864927
0.864443
0.864006
0.863777
0.862929
0.873186
0.871435
0.868795
0.866099
0.863943
0.862672
0.862127
0.861901
0.861956
0.861738
0.871472
0.867843
0.863361
0.859878
0.857611
0.856383
0.856107
0.856562
0.857731
0.859273
0.86798
0.861901
0.857088
0.854139
0.852729
0.852443
0.853252
0.854825
0.856293
0.857596
0.862259
0.856967
0.85383
0.852219
0.851612
0.851996
0.853469
0.85506
0.856379
0.857454
0.859387
0.855494
0.853517
0.852715
0.852766
0.85356
0.85502
0.856676
0.857754
0.858147
0.853977
0.853333
0.853034
0.853113
0.853523
0.854381
0.855914
0.857855
0.859329
0.859455
0.832428
0.839328
0.837502
0.835115
0.835435
0.838237
0.843736
0.85018
0.857459
0.863412
0.852001
0.858734
0.857711
0.854959
0.854646
0.855686
0.858308
0.861261
0.863262
0.859022
0.866132
0.868807
0.867961
0.865581
0.864662
0.864838
0.865768
0.867035
0.868223
0.867687
0.87304
0.873258
0.871679
0.869318
0.867922
0.867633
0.8678
0.868368
0.868994
0.868869
0.875567
0.874038
0.871362
0.868817
0.867055
0.866457
0.866416
0.866794
0.867344
0.867291
0.875076
0.87109
0.866745
0.86339
0.861295
0.860418
0.860337
0.86093
0.862849
0.864793
0.871798
0.865678
0.861143
0.858306
0.856932
0.856687
0.85739
0.858763
0.860187
0.8621
0.866967
0.861881
0.858765
0.856988
0.856206
0.856445
0.857638
0.859044
0.860216
0.861518
0.864798
0.860503
0.858165
0.857019
0.856739
0.857275
0.858608
0.860284
0.861309
0.86189
0.859609
0.857591
0.856386
0.855815
0.855867
0.856618
0.858248
0.860344
0.862401
0.86301
0.808702
0.820011
0.822232
0.823083
0.82529
0.831166
0.839788
0.849922
0.859235
0.866717
0.826595
0.847034
0.848809
0.848418
0.849321
0.852175
0.857284
0.863108
0.868157
0.870444
0.853506
0.862651
0.863861
0.863367
0.863638
0.864879
0.867431
0.870387
0.873093
0.874294
0.869183
0.871649
0.871449
0.870371
0.870071
0.870341
0.871368
0.872827
0.874112
0.874531
0.875764
0.875374
0.873784
0.871952
0.870967
0.870893
0.871288
0.872218
0.872869
0.872816
0.877694
0.874891
0.871762
0.86913
0.867483
0.866937
0.866995
0.867679
0.869418
0.870644
0.875817
0.870629
0.866534
0.863857
0.862547
0.86228
0.862746
0.863865
0.865376
0.867644
0.871967
0.867478
0.864465
0.862555
0.861687
0.861784
0.862542
0.863614
0.864408
0.865841
0.870088
0.866191
0.863719
0.862235
0.861655
0.861928
0.862945
0.864228
0.865086
0.865591
0.866294
0.863351
0.861428
0.860192
0.859888
0.860492
0.862078
0.863873
0.865762
0.866446
0.797562
0.801008
0.807625
0.811899
0.818325
0.828556
0.840175
0.851499
0.862037
0.870271
0.810555
0.835547
0.840007
0.841697
0.844415
0.850329
0.857949
0.865334
0.871995
0.876355
0.835545
0.854782
0.859141
0.860466
0.862207
0.865399
0.869475
0.873773
0.877484
0.879505
0.86161
0.868321
0.870321
0.870981
0.871739
0.873187
0.87527
0.877396
0.879096
0.879715
0.874357
0.87578
0.875688
0.875174
0.875101
0.875483
0.876471
0.877643
0.878314
0.878169
0.879557
0.878246
0.876529
0.874949
0.874062
0.87393
0.874204
0.874935
0.875901
0.876325
0.880308
0.876804
0.873552
0.871115
0.869777
0.869423
0.869675
0.870519
0.871834
0.873474
0.878259
0.874268
0.871263
0.86917
0.868079
0.867894
0.868181
0.868822
0.869302
0.870492
0.876603
0.873186
0.870541
0.868707
0.867771
0.867707
0.868196
0.868886
0.869323
0.869614
0.874226
0.870767
0.868389
0.866608
0.865848
0.86603
0.86709