/*--------------------------------*- C++ -*----------------------------------*\
  =========                 |
  \\      /  F ield         | OpenFOAM: The Open Source CFD Toolbox
   \\    /   O peration     | Website:  https://openfoam.org
    \\  /    A nd           | Version:  9
     \\/     M anipulation  |
\*---------------------------------------------------------------------------*/
FoamFile
{
    format      ascii;
    class       volScalarField;
    location    "80";
    object      f4.gas;
}
// * * * * * * * * * * * * * * * * * * * * * * * * * * * * * * * * * * * * * //

dimensions      [0 0 0 0 0 0 0];

internalField   nonuniform List<scalar> 
137980
(
0.00238516
0.00238137
0.00249094
0.00272162
0.00298862
0.00325852
0.00352489
0.00393669
0.00440203
0.00541186
0.00233683
0.00234245
0.002495
0.00276688
0.00308614
0.00341972
0.00375198
0.00420185
0.00481839
0.00541326
0.00229381
0.00230237
0.00246809
0.00276995
0.00312758
0.00351117
0.00390893
0.00439113
0.00503544
0.00541505
0.00223164
0.00224574
0.00240995
0.00271055
0.00308853
0.00352938
0.00397775
0.00449077
0.0050376
0.00537658
0.00216583
0.00218142
0.00232446
0.00259742
0.00296172
0.0034399
0.00393872
0.00444397
0.00496553
0.00523804
0.00212897
0.0021298
0.00222532
0.00244647
0.00275573
0.00319536
0.00375294
0.00428906
0.00479026
0.00503887
0.0021413
0.00212085
0.00215524
0.00229144
0.00252797
0.00285826
0.00330345
0.00385578
0.0043944
0.00472125
0.00225534
0.00215584
0.0021413
0.00219186
0.00233652
0.00256592
0.00286414
0.00321911
0.00357019
0.00389129
0.00244713
0.00227935
0.00217483
0.00217255
0.00222319
0.00237464
0.00259653
0.00287045
0.00315928
0.00333528
0.00261502
0.00243709
0.00228287
0.00220319
0.00219406
0.00224292
0.00238626
0.00264109
0.00288982
0.0032042
0.00240816
0.00242562
0.00256901
0.00285046
0.00319394
0.00359332
0.00427411
0.00458136
0.00432536
0.00592003
0.00236809
0.00239967
0.00259988
0.00293181
0.00334557
0.00388078
0.00475195
0.00510461
0.00496543
0.00622184
0.00232336
0.00236971
0.00260206
0.00296427
0.00342258
0.00408211
0.00516682
0.00574829
0.00575149
0.00672626
0.00225938
0.00231432
0.00254269
0.0029163
0.00343679
0.00418185
0.00539892
0.0065189
0.00677598
0.00715478
0.0022035
0.00224542
0.00244389
0.00279465
0.0033228
0.00411007
0.00526356
0.00684373
0.0074929
0.00764337
0.00218543
0.0022
0.0023206
0.00261954
0.00308842
0.00383969
0.00495718
0.0066196
0.0075329
0.00784408
0.0022456
0.00221199
0.0022358
0.00242064
0.00278962
0.00336895
0.00430119
0.005752
0.00720803
0.00773345
0.0025071
0.00230408
0.00224959
0.00228338
0.00251067
0.00290991
0.00352012
0.00443869
0.00580857
0.00704631
0.0029432
0.00255242
0.00234473
0.00226648
0.00233058
0.00258976
0.00299
0.00355314
0.00425588
0.00502808
0.00304184
0.0027633
0.00251327
0.00232643
0.00226911
0.00236752
0.00261044
0.00302714
0.00358182
0.0037159
0.00242242
0.00246671
0.00265627
0.00299594
0.00346177
0.0042448
0.00517155
0.00498629
0.00438755
0.00660468
0.00239328
0.00247077
0.00274063
0.00317286
0.00380564
0.00490548
0.00577299
0.00559827
0.00496946
0.00680969
0.00235812
0.00246528
0.00277576
0.00327339
0.00407326
0.00548412
0.00641886
0.00633694
0.00561089
0.00717316
0.00230562
0.00242889
0.0027536
0.00329849
0.00420291
0.00586406
0.00710169
0.0072092
0.00656671
0.00747494
0.00227181
0.00236754
0.0026636
0.00320936
0.00416932
0.00600851
0.00767821
0.0079466
0.00751849
0.00797787
0.00229038
0.00232346
0.00252221
0.00300667
0.00390373
0.00569006
0.00808791
0.00874248
0.00828685
0.00848799
0.00245171
0.00235574
0.00241151
0.00273878
0.00348648
0.00492997
0.00784889
0.00935456
0.00956252
0.00897589
0.00294496
0.0025053
0.00240279
0.00252664
0.00303088
0.00410369
0.00646717
0.00914601
0.0101119
0.0101115
0.00350616
0.00294405
0.0025441
0.00245391
0.00268873
0.0034168
0.00485349
0.00786251
0.00961582
0.010196
0.00351688
0.00316508
0.00284169
0.002464
0.00249661
0.00292152
0.0038732
0.00539263
0.00697984
0.0070993
0.00246569
0.00257604
0.00286593
0.00334218
0.00420787
0.00602152
0.00613802
0.00512323
0.0050608
0.00984766
0.00247051
0.00266088
0.00308867
0.00383792
0.005501
0.00678085
0.00660905
0.00579184
0.00569789
0.0105624
0.00246717
0.00271148
0.00324022
0.00420646
0.00623544
0.00743674
0.00733754
0.0064476
0.00631455
0.0111118
0.00245228
0.00272491
0.00330065
0.00438203
0.00662016
0.00802823
0.00808258
0.00715443
0.00683408
0.0111851
0.00244636
0.00268449
0.00324755
0.00437436
0.00670273
0.00853099
0.00877404
0.00780923
0.0073266
0.0110184
0.00247391
0.00262781
0.00307355
0.00411441
0.00638087
0.00885005
0.00937519
0.00858663
0.00790923
0.0104324
0.00262566
0.00261128
0.00287936
0.00369613
0.00560961
0.00881621
0.00987845
0.00960907
0.0089157
0.00999321
0.003047
0.00273503
0.00277276
0.00329615
0.00476485
0.00819077
0.0101258
0.0105923
0.00974137
0.0102706
0.00357714
0.00304855
0.00282651
0.00301533
0.00402793
0.00664165
0.00994472
0.0111701
0.011384
0.0112267
0.00360033
0.0032536
0.00299478
0.00286275
0.00350482
0.00550094
0.00887801
0.0106712
0.0114539
0.0107047
0.00268017
0.00299833
0.00377815
0.00497076
0.00598844
0.00603898
0.00517286
0.00497612
0.00910197
0.0147117
0.00284334
0.00346512
0.00505428
0.00644432
0.00680273
0.00639126
0.00588268
0.0061508
0.012107
0.0145563
0.00297721
0.00384483
0.0058704
0.00727225
0.00757193
0.00711108
0.00690042
0.00829532
0.0128404
0.0130256
0.00307034
0.00402495
0.0062666
0.007929
0.00829406
0.00805108
0.00800314
0.00992727
0.0129712
0.011916
0.0031067
0.00402591
0.00615205
0.00833097
0.00891671
0.00894503
0.00895652
0.0107986
0.0130143
0.0123926
0.00308219
0.00382506
0.00554729
0.00838075
0.00948223
0.00965194
0.00962776
0.0108032
0.0129735
0.0131479
0.00309333
0.00355305
0.00488785
0.00787851
0.00977763
0.0103263
0.0102732
0.0108063
0.0127573
0.0131799
0.00327108
0.00337996
0.00427078
0.00650689
0.00961427
0.0108216
0.0110127
0.0109719
0.0121477
0.0128479
0.00356814
0.00340502
0.00382306
0.00529747
0.00880719
0.0108337
0.011693
0.0114613
0.0123003
0.0129544
0.00361148
0.00348402
0.00361337
0.00453802
0.00736078
0.0104853
0.0118543
0.0125159
0.0129255
0.0135426
0.00408305
0.00419603
0.00423182
0.00456749
0.00517626
0.00496292
0.0049089
0.00780831
0.0147843
0.014826
0.00519502
0.00560169
0.00578778
0.00584812
0.00585329
0.00579537
0.00722755
0.012077
0.0133463
0.00830532
0.00615335
0.00658408
0.00675192
0.0067997
0.00686985
0.00785195
0.0107253
0.0116953
0.00923076
0.00534277
0.00680064
0.00747853
0.00778299
0.00796649
0.00853911
0.0101242
0.0107855
0.010422
0.00615237
0.00468343
0.00722923
0.00823687
0.00874106
0.00922394
0.0101844
0.0105982
0.0105983
0.00854608
0.00545977
0.00473395
0.0072292
0.00879816
0.00986631
0.0104217
0.0107582
0.0107427
0.0100465
0.00745679
0.00559249
0.00525602
0.00690203
0.00885617
0.0104655
0.0110545
0.0111408
0.0108746
0.00982139
0.00747121
0.00612137
0.00682161
0.00600414
0.00855387
0.0104102
0.0113761
0.0115359
0.0110746
0.010021
0.00782491
0.00693309
0.00899598
0.00535705
0.00768244
0.0100218
0.0113145
0.011748
0.0115032
0.0105176
0.00868753
0.00781431
0.00926871
0.00467898
0.00622511
0.00907639
0.0109847
0.0117966
0.0120786
0.0114148
0.0106898
0.0100452
0.0105933
0.0041714
0.00456937
0.00474659
0.0052546
0.00599274
0.00846184
0.0121697
0.0128034
0.00975601
0.00862152
0.00539636
0.00553441
0.00579124
0.00668666
0.00915037
0.011129
0.011571
0.00917068
0.00615674
0.00531001
0.0063815
0.00644876
0.00718924
0.00899248
0.0105464
0.0108454
0.0096607
0.00605371
0.00484604
0.00438747
0.00741668
0.00778087
0.00901711
0.0101423
0.0104568
0.010049
0.00700373
0.00500365
0.00443736
0.00425413
0.00864264
0.00923167
0.0101428
0.0103997
0.0102143
0.0085949
0.005683
0.00472837
0.0045286
0.00458175
0.00967847
0.0102708
0.0105337
0.0104637
0.00974342
0.00732607
0.00534931
0.00487718
0.00505304
0.00634022
0.010321
0.0107385
0.0108216
0.0105423
0.00938612
0.00675643
0.00550668
0.00531615
0.00658401
0.00874521
0.010571
0.0110222
0.0110679
0.0107503
0.00949794
0.00690995
0.00585056
0.00574419
0.00736333
0.00965977
0.0104156
0.0110439
0.0112241
0.0109442
0.00988906
0.00741562
0.00630626
0.00606059
0.00739487
0.00951407
0.0101321
0.0110306
0.0112451
0.0112523
0.0106804
0.00859545
0.00742068
0.00679327
0.00761785
0.00942465
0.00906028
0.00922512
0.00859722
0.00828217
0.00757765
0.00697812
0.00646308
0.00607918
0.00590587
0.00586176
0.00807771
0.00796296
0.00731792
0.00703934
0.00641075
0.00580796
0.00529751
0.00499579
0.00478219
0.00467745
0.00764276
0.00735484
0.00683921
0.00657501
0.00576089
0.00524634
0.0049087
0.00468743
0.00459818
0.0045115
0.00768018
0.00732921
0.00683335
0.0061663
0.00535402
0.00498569
0.00482237
0.00481077
0.00499829
0.0051549
0.00792668
0.00752244
0.00690583
0.00597242
0.00528907
0.00503667
0.00506174
0.00577179
0.00643188
0.00672603
0.00848127
0.00792534
0.00707178
0.00603689
0.00536616
0.00517641
0.0054294
0.00634643
0.00727904
0.00777717
0.00912021
0.00845114
0.00742157
0.00622664
0.00545218
0.00520083
0.00531235
0.00615433
0.00758917
0.00823087
0.00968449
0.00908119
0.00790897
0.00662546
0.00567315
0.00523059
0.00509457
0.00547862
0.00698595
0.00839331
0.00999123
0.00965276
0.00858673
0.00743315
0.00619288
0.00544938
0.00514041
0.00524922
0.00582678
0.00802397
0.010131
0.0101995
0.00931694
0.00835246
0.00758286
0.00643774
0.00575196
0.00588464
0.00637177
0.00793322
0.00741524
0.00762258
0.007075
0.00685105
0.00648188
0.00627009
0.00598025
0.0058462
0.00576461
0.00574478
0.00675778
0.0066736
0.00616025
0.00595471
0.00569657
0.00560133
0.00554304
0.00551417
0.00538975
0.00526995
0.00611355
0.00583796
0.00538262
0.00522171
0.0051685
0.00518911
0.00541831
0.00555651
0.00566909
0.00571243
0.00586526
0.00524808
0.00490175
0.00478409
0.00476477
0.00502749
0.00542006
0.00580934
0.00610179
0.00623552
0.00598271
0.00505018
0.00461563
0.0044366
0.00439567
0.00467116
0.00518286
0.00594109
0.00636957
0.00652503
0.0064446
0.00523133
0.00463341
0.00424875
0.00411413
0.00419392
0.00473107
0.00578024
0.00647818
0.00667373
0.00729648
0.00582847
0.00487383
0.00437144
0.00408572
0.00399134
0.00421739
0.00485006
0.00603889
0.00660384
0.00829813
0.00662906
0.00545085
0.00482716
0.00453562
0.00430208
0.00425838
0.00452778
0.00534755
0.0065221
0.00893237
0.00751477
0.00652051
0.00585324
0.00577896
0.00545265
0.00508289
0.00511693
0.00534523
0.00648871
0.00941597
0.00833935
0.00741081
0.00738866
0.00758664
0.00679637
0.00628626
0.0063415
0.00659452
0.00708243
0.00746695
0.0077412
0.00775702
0.00763717
0.00750208
0.00732124
0.00715372
0.00697553
0.0068819
0.00684473
0.00636308
0.0065089
0.00652184
0.006483
0.0063884
0.00633069
0.00620201
0.00611142
0.00595612
0.00583752
0.00575361
0.00567858
0.00561354
0.00559821
0.00560193
0.00567179
0.00571909
0.00573121
0.0057233
0.00564676
0.00517805
0.00489
0.00478784
0.00475514
0.00477158
0.00501191
0.0052563
0.00547435
0.0056349
0.00568737
0.00518045
0.00452005
0.0042396
0.00411225
0.00407111
0.00422814
0.00464825
0.00515491
0.00560839
0.00578334
0.00543442
0.00470099
0.00413568
0.00380371
0.00369504
0.00370183
0.00391306
0.00439467
0.005192
0.00585113
0.00650361
0.00522178
0.00436046
0.00390052
0.00364977
0.00362353
0.00373032
0.00407992
0.00475556
0.00585746
0.00740675
0.0061743
0.00486108
0.00421155
0.00395523
0.00396609
0.0040517
0.00428219
0.00470244
0.00576588
0.00776812
0.00689155
0.00567041
0.00480156
0.00484951
0.0050204
0.00504344
0.00515459
0.00540653
0.00611279
0.00790667
0.0069868
0.00596307
0.00581689
0.00637228
0.00645256
0.0062142
0.00623786
0.00629764
0.00650085
0.00932348
0.010237
0.0105482
0.0107178
0.0107392
0.0104293
0.0100661
0.00951999
0.00918988
0.0087623
0.0078773
0.00817973
0.00826683
0.00828704
0.0081732
0.00792359
0.00755425
0.00713655
0.00684441
0.00648446
0.00727042
0.00741952
0.00744983
0.00738849
0.00721991
0.00703755
0.00674257
0.00642696
0.00614622
0.00578573
0.00631984
0.00634234
0.00636407
0.00637164
0.00633598
0.00626567
0.00614362
0.00599139
0.00577159
0.00547241
0.00568209
0.00547724
0.00539995
0.00536138
0.00534466
0.00535512
0.00536727
0.00534131
0.00521315
0.00515203
0.00541286
0.00505924
0.00472466
0.00455802
0.00445635
0.00440282
0.00443252
0.00454649
0.00453778
0.00467031
0.00590932
0.00527374
0.00464798
0.00425245
0.00401938
0.00391151
0.00390187
0.00397788
0.00402953
0.00431469
0.00690379
0.00585194
0.00493107
0.00435041
0.00404195
0.00393534
0.00389419
0.00390524
0.00397356
0.00425926
0.00732965
0.00688049
0.00563788
0.00467803
0.0043446
0.00429858
0.0043824
0.00449451
0.00464058
0.00506944
0.00735513
0.00708289
0.00601116
0.00506671
0.00508345
0.00523854
0.00525042
0.00528482
0.0052975
0.00556956
0.00657522
0.00642057
0.00533639
0.00485435
0.00463796
0.00458993
0.00483681
0.00571116
0.00821937
0.0116765
0.0083974
0.00725868
0.00639655
0.00587948
0.00571556
0.00609305
0.00758197
0.00911957
0.00976297
0.00983084
0.00916386
0.00895337
0.00836108
0.00810981
0.00809926
0.00865683
0.00889431
0.00896934
0.00824591
0.00626784
0.00924059
0.00931179
0.00913308
0.00896697
0.00886058
0.00882036
0.00860793
0.00771751
0.00595073
0.00524072
0.00865515
0.00908779
0.00907278
0.00891661
0.00876348
0.00847446
0.00756957
0.00604519
0.00526945
0.00488944
0.00769728
0.00848189
0.00863461
0.00860268
0.00832589
0.00769369
0.00659469
0.00549
0.00502321
0.00482009
0.00738396
0.00759941
0.00794559
0.00795323
0.00773602
0.00706787
0.00596524
0.00499605
0.00467347
0.00461063
0.00755964
0.00702086
0.00716848
0.00729288
0.00724087
0.00687203
0.00602543
0.0050249
0.00453943
0.00447052
0.0080341
0.00710708
0.00670331
0.00659435
0.00655767
0.00643089
0.00610704
0.00528404
0.00471403
0.00473849
0.00761974
0.00747968
0.00640981
0.00607588
0.00614658
0.0062161
0.00614337
0.00583242
0.00524854
0.00504924
0.0123679
0.012146
0.0108848
0.0098673
0.00949939
0.00995977
0.00941182
0.00771163
0.006391
0.00527809
0.0107886
0.00995592
0.00928354
0.00869175
0.008417
0.0085505
0.00927975
0.00917325
0.0085552
0.00723415
0.00970707
0.00927929
0.0088572
0.00841943
0.00822444
0.00836399
0.00876726
0.00926996
0.00897943
0.00774285
0.0088461
0.00875019
0.00840849
0.00804819
0.00809439
0.00831349
0.00866987
0.00905425
0.0086442
0.00738504
0.00856404
0.00850052
0.00809002
0.00785617
0.00791665
0.00815691
0.00839005
0.00845714
0.00781505
0.00688955
0.00845332
0.00817465
0.00763818
0.00757315
0.00773848
0.00786027
0.00793342
0.00790571
0.00725865
0.00671892
0.00836498
0.00788966
0.00741943
0.00729673
0.00743294
0.00750315
0.0075439
0.00745567
0.00700972
0.00660908
0.00808365
0.00775928
0.00727352
0.00699041
0.0070311
0.00711507
0.00725684
0.00724666
0.0068832
0.00639453
0.00759703
0.00770119
0.00723206
0.00677651
0.00659963
0.0066449
0.00681377
0.00692685
0.00659568
0.00635368
0.00690684
0.00739469
0.00712386
0.00670069
0.006494
0.00645669
0.00658848
0.00680026
0.00655245
0.00631297
0.0140474
0.0129232
0.012213
0.0110395
0.00958694
0.00863809
0.00822986
0.00820075
0.00826912
0.00854062
0.0110999
0.0104028
0.00993316
0.00913861
0.00825833
0.0076802
0.00743848
0.00745789
0.00760001
0.00759336
0.00977545
0.00955207
0.00918588
0.00841263
0.00767786
0.00713565
0.00684554
0.0068866
0.0070817
0.00719286
0.00928635
0.00915347
0.00860218
0.00759433
0.00687224
0.00644044
0.00645114
0.00657528
0.00684549
0.00698339
0.00909094
0.00883183
0.00784815
0.00696797
0.00640635
0.00621977
0.00631515
0.0065368
0.00678378
0.00685204
0.00890387
0.00842697
0.00732506
0.00657499
0.00614858
0.00614278
0.00628888
0.00656269
0.00672553
0.00674423
0.00861493
0.00810312
0.00708611
0.00638523
0.00604914
0.00608741
0.00633093
0.00659277
0.00665894
0.00662496
0.00829152
0.00794136
0.00698474
0.00631231
0.00601641
0.00605627
0.00639424
0.00665454
0.00666465
0.00661448
0.00797608
0.00780159
0.00694336
0.00634169
0.00609444
0.00609966
0.00644929
0.00676137
0.00686737
0.00696559
0.00770519
0.0075655
0.0068655
0.00644878
0.00631019
0.00644487
0.00674978
0.00688791
0.00691136
0.00674942
0.00993042
0.00921389
0.00818809
0.0074731
0.00702228
0.00656496
0.00627741
0.00638371
0.00686678
0.00710571
0.0100163
0.00913178
0.00787715
0.00693131
0.00629339
0.00583881
0.00571935
0.00578522
0.00605967
0.00625754
0.00944901
0.00842467
0.00713483
0.00615969
0.00544703
0.00506592
0.00506629
0.0051806
0.0054954
0.00564951
0.00921731
0.00810311
0.00676381
0.00559273
0.00497459
0.00473199
0.00474421
0.00486048
0.00517251
0.00543233
0.00883672
0.00748714
0.00623738
0.00524993
0.00478995
0.00461856
0.00464726
0.00477814
0.00505522
0.00546247
0.00851889
0.00719159
0.00601968
0.00513984
0.00474128
0.00460581
0.00464539
0.00479998
0.00506778
0.00550321
0.00812491
0.00689022
0.00592644
0.0051277
0.00483737
0.00477339
0.0047758
0.00488691
0.00514927
0.00561077
0.00788633
0.00674868
0.00591037
0.00533139
0.00516256
0.00514473
0.00512087
0.0051183
0.00526297
0.00570735
0.00771962
0.00662428
0.00598639
0.00559973
0.00552092
0.00566303
0.00568352
0.00570542
0.00575054
0.00599016
0.00764222
0.00655886
0.00603734
0.00582719
0.00584614
0.00601358
0.00605012
0.00595623
0.00580851
0.00569406
0.0086549
0.00713789
0.00632423
0.00573174
0.00540585
0.00508656
0.0049503
0.00514785
0.00576244
0.00663861
0.00896144
0.00728958
0.00623073
0.00548343
0.00505091
0.00475819
0.00462723
0.00468948
0.00500734
0.00510652
0.00865912
0.0069157
0.00585133
0.00516985
0.00481403
0.00455622
0.00440384
0.00441678
0.00455386
0.00465771
0.0084827
0.0067503
0.00569557
0.00503912
0.00472791
0.00449108
0.00432869
0.00427664
0.00432562
0.00444875
0.00807132
0.0064167
0.00550719
0.00498309
0.00470852
0.00448696
0.00432316
0.00423734
0.00426194
0.00443403
0.00786499
0.00625797
0.00542341
0.00497154
0.0047744
0.00461083
0.0044282
0.00428375
0.00429063
0.00454276
0.00750177
0.00600576
0.00535342
0.00503659
0.00493616
0.00482044
0.0046427
0.00444778
0.00439302
0.00470823
0.00732414
0.00588735
0.0053243
0.00516662
0.0051752
0.00512744
0.00494804
0.00474928
0.00462291
0.0047256
0.00718318
0.0057472
0.00530087
0.00526249
0.00536357
0.00536956
0.0052263
0.00508646
0.00509848
0.00513789
0.00713461
0.0056624
0.00527328
0.00535207
0.00548809
0.00549589
0.0053524
0.00520418
0.00508638
0.00481719
0.0102999
0.00958668
0.0088875
0.00803747
0.00750853
0.00709435
0.00694115
0.00673701
0.00646544
0.00559703
0.0105166
0.00978134
0.00907024
0.00802479
0.00737536
0.00696016
0.00658115
0.00637553
0.00588746
0.00566384
0.0104868
0.0098151
0.00923158
0.00813553
0.0073674
0.00690056
0.0064009
0.0059535
0.00553587
0.00492325
0.0102038
0.00976921
0.00938466
0.00848611
0.0075834
0.00690024
0.00622305
0.00564245
0.00507722
0.00442244
0.00995935
0.0095171
0.00942961
0.00872253
0.00780679
0.00699957
0.00615552
0.00549325
0.0048892
0.00421971
0.00974454
0.00915229
0.00942877
0.00894621
0.00801737
0.00722176
0.0061862
0.00545504
0.00483807
0.0041808
0.00966583
0.00853142
0.00920866
0.00905469
0.00826537
0.00750851
0.00651914
0.00562803
0.00507223
0.00438115
0.00978133
0.00775327
0.00875155
0.00908728
0.00840228
0.00785552
0.00688968
0.00593693
0.00536235
0.00487629
0.0102635
0.00713994
0.00798282
0.00894754
0.00845593
0.00806359
0.00756358
0.0064763
0.00573707
0.00537135
0.0104289
0.00678707
0.00685502
0.00848822
0.00843467
0.00812283
0.00790676
0.00761391
0.00703191
0.00659489
0.0112421
0.00888023
0.00811548
0.00774616
0.0073789
0.00703655
0.00655526
0.00602957
0.00590377
0.00619333
0.0110699
0.00907097
0.00816114
0.00775131
0.00732267
0.00692892
0.00637313
0.00582812
0.00576758
0.00587945
0.0113025
0.00900453
0.00797919
0.00765674
0.00730735
0.0069052
0.00630645
0.00573639
0.00550846
0.00540846
0.0113948
0.008857
0.00781291
0.00761149
0.00732377
0.00691373
0.00627798
0.00563342
0.0052681
0.00518085
0.0113372
0.00853447
0.00753059
0.00747815
0.00737132
0.00699761
0.00627437
0.00557083
0.00512217
0.0048698
0.0108415
0.00813938
0.00728134
0.00739021
0.0074472
0.00715524
0.00636132
0.00554242
0.00502587
0.00459019
0.0105839
0.00769809
0.00699023
0.00723372
0.00748997
0.00728857
0.00653315
0.00554543
0.00502676
0.00460823
0.0102199
0.00735848
0.00669825
0.00709738
0.00749052
0.00733093
0.0066752
0.00569039
0.00523382
0.00495141
0.0100937
0.00710716
0.00639042
0.0068845
0.00739904
0.00732276
0.00671133
0.00575508
0.00529955
0.0049418
0.0100778
0.006967
0.00613775
0.00668974
0.00714358
0.00715814
0.00668302
0.00580681
0.00522222
0.00483549
0.00860467
0.00721138
0.00663021
0.00638707
0.00627274
0.00622309
0.0063764
0.00698599
0.00726601
0.0073771
0.00840563
0.00742846
0.00701298
0.006754
0.00662845
0.00658571
0.00674436
0.00719076
0.00743141
0.00782359
0.0089466
0.00780519
0.00736931
0.00713178
0.00703572
0.00703141
0.00727238
0.00766096
0.0079355
0.00815477
0.00969922
0.00828163
0.00776007
0.00752027
0.00743439
0.00752216
0.00775493
0.00789954
0.00793019
0.00762977
0.0104809
0.00876674
0.00813311
0.00785854
0.00776113
0.00779486
0.00786594
0.00787651
0.00767022
0.00667521
0.0109648
0.00936549
0.00850976
0.00814698
0.00797124
0.0078916
0.00785473
0.00773829
0.00713781
0.00642266
0.0112778
0.00989279
0.00887435
0.00845958
0.00810398
0.00793771
0.00780301
0.00744966
0.00679423
0.00632185
0.011256
0.010478
0.00930601
0.00872496
0.008366
0.00799169
0.00767474
0.00724092
0.00660361
0.00607538
0.0110593
0.0107415
0.00986019
0.00903106
0.00867112
0.00811514
0.00770361
0.00710851
0.0063803
0.00606782
0.0107065
0.0108223
0.0100918
0.00920311
0.00886849
0.00841402
0.00790678
0.00719497
0.00642658
0.00640544
0.00493745
0.00496615
0.00435967
0.00410536
0.00387907
0.00390154
0.00415552
0.0045666
0.00483522
0.00524092
0.00524318
0.00496719
0.00434536
0.00412877
0.00401847
0.00410255
0.00439293
0.00477261
0.0051002
0.00577393
0.00565667
0.00504178
0.00453607
0.00434513
0.0042963
0.00434381
0.00462781
0.00501522
0.0056427
0.00598585
0.00602768
0.0053334
0.00489425
0.00469453
0.00461669
0.00461904
0.00498138
0.00557215
0.00585734
0.00577511
0.00628229
0.00567095
0.00528845
0.00510203
0.0050111
0.00511502
0.00557618
0.00581168
0.00584946
0.00529094
0.00652319
0.00589283
0.00560201
0.00551038
0.00549586
0.00561942
0.00585887
0.00596474
0.00579045
0.0048555
0.00663061
0.00616583
0.0059374
0.00587059
0.00584442
0.00597209
0.00608669
0.00603831
0.00564922
0.00474934
0.00676232
0.00639127
0.00618919
0.00617831
0.00617029
0.0062907
0.00629415
0.00613287
0.00566747
0.00476609
0.00696829
0.00691774
0.00666086
0.00654429
0.00649811
0.0064786
0.00644852
0.00626362
0.0057585
0.00480995
0.00719956
0.00709965
0.00689664
0.00686963
0.00683641
0.00678057
0.00672058
0.00655268
0.00598636
0.00498118
0.00202618
0.00205531
0.00221269
0.00282207
0.00342427
0.00360952
0.0040698
0.0035641
0.00224993
0.00194211
0.00208915
0.0021588
0.00243162
0.00301283
0.00346075
0.00378383
0.0040542
0.00367464
0.00265815
0.00206067
0.00255627
0.00264311
0.00290497
0.00328373
0.00352485
0.00374614
0.00396594
0.00364144
0.00267831
0.00206791
0.00283105
0.00319928
0.00328739
0.00337369
0.00348616
0.00361207
0.00360683
0.00326364
0.00273203
0.00217818
0.00259335
0.00323417
0.00323232
0.00325441
0.00323743
0.00318091
0.00301567
0.00277837
0.00274428
0.00235787
0.00260855
0.00306472
0.00292519
0.00287572
0.00285554
0.00277532
0.00272245
0.00272338
0.00275617
0.00228957
0.00255081
0.00316022
0.00305554
0.00302459
0.00294171
0.00289938
0.00281132
0.00274611
0.00246403
0.00219379
0.00244523
0.00300813
0.00303511
0.00307998
0.00300447
0.00292394
0.00278644
0.00260439
0.0022681
0.00214819
0.00231954
0.0029263
0.00284014
0.00283698
0.00292967
0.00294541
0.00285599
0.00258669
0.00225349
0.00214278
0.00228625
0.00265958
0.00268295
0.00267314
0.00276879
0.00288483
0.00280329
0.00250458
0.0022507
0.00217083
0.00171629
0.00178263
0.0017955
0.00179443
0.00172839
0.00151608
0.00133402
0.00126759
0.00124979
0.00124726
0.00173893
0.00177819
0.00178036
0.00173623
0.00158704
0.00137799
0.00129196
0.00127064
0.00128345
0.00123828
0.00174938
0.00177033
0.00176178
0.0016753
0.0014927
0.00132939
0.00127763
0.00126536
0.00124156
0.00123312
0.00174695
0.00175482
0.00172236
0.00161951
0.00145224
0.00132993
0.00127778
0.00126523
0.00124605
0.00125523
0.00173931
0.0017413
0.00169878
0.00159967
0.00145977
0.00134686
0.00130166
0.00127098
0.00127752
0.00130283
0.00172812
0.00172138
0.00166459
0.0015845
0.0014853
0.00139426
0.00133653
0.00133875
0.00134796
0.00133494
0.00170646
0.00169244
0.00163994
0.00157463
0.00151537
0.00148095
0.00143156
0.00141265
0.00137143
0.00132328
0.00168918
0.001665
0.00157942
0.00135694
0.00138385
0.00142352
0.00141814
0.00140368
0.0012944
0.00127169
0.00166633
0.00151257
0.00129373
0.00125306
0.00125318
0.00130129
0.00132659
0.00130856
0.00125806
0.00124046
0.00161346
0.00144073
0.00125907
0.00126493
0.0012592
0.00130061
0.00129479
0.00120245
0.00113922
0.00108311
0.00215122
0.0021905
0.00220125
0.0022043
0.00217785
0.0021163
0.00197571
0.00175776
0.00153991
0.00143891
0.00212754
0.00213859
0.00212268
0.00208209
0.00198987
0.00183701
0.00163077
0.00146443
0.0013591
0.00131394
0.00205171
0.00202347
0.00194457
0.00183129
0.00168114
0.0015078
0.00137606
0.00128332
0.00124384
0.0012351
0.00188113
0.00180045
0.00166411
0.00153657
0.00139896
0.0012874
0.00119962
0.00116162
0.00115417
0.00119534
0.00159237
0.00151304
0.00136688
0.00129472
0.00118091
0.00112674
0.00108438
0.0010728
0.00108095
0.0011143
0.00136775
0.00129008
0.00118734
0.00113768
0.00106281
0.00103355
0.000998573
0.000999313
0.00102178
0.0010582
0.00120754
0.00112327
0.00105803
0.00100624
0.000968055
0.000951067
0.000945361
0.000952925
0.000985941
0.00100749
0.00108765
0.00103641
0.000993083
0.000971845
0.00096259
0.00092393
0.000925387
0.000927246
0.000949164
0.000967033
0.00105813
0.00101762
0.00100255
0.00101031
0.0010032
0.000928572
0.000906264
0.000918823
0.000935667
0.000935939
0.00109069
0.00102573
0.00101243
0.0010422
0.00101912
0.000929997
0.000905848
0.000915412
0.0009172
0.000818716
0.00118019
0.00106415
0.00104272
0.00103655
0.00104161
0.00108276
0.00113614
0.00117865
0.00121621
0.00128296
0.00118719
0.00106163
0.00102462
0.00101351
0.00102286
0.00106547
0.00110033
0.00114276
0.00120568
0.00130598
0.00123402
0.00108319
0.00102976
0.0010072
0.00100952
0.00103647
0.0010713
0.00112066
0.00119455
0.00130643
0.00138571
0.00116324
0.00107455
0.00102874
0.00101391
0.0010211
0.00104672
0.00109833
0.00115349
0.00120267
0.00164723
0.00139876
0.00121884
0.00110953
0.00105652
0.00102168
0.00101897
0.00106081
0.00108828
0.00108129
0.00179368
0.00163463
0.00147029
0.00130152
0.00114712
0.00104403
0.000990497
0.000998641
0.00100008
0.000954867
0.0018339
0.00173194
0.00163783
0.00148201
0.00127811
0.00110667
0.000982557
0.000927492
0.000904623
0.000860147
0.00181642
0.00173827
0.00166613
0.00158169
0.00141354
0.00118397
0.00100875
0.000897532
0.000847077
0.000818625
0.00174938
0.00171571
0.00165945
0.0015938
0.00149708
0.00128917
0.00106158
0.00090237
0.000830878
0.00080452
0.00156013
0.00160382
0.00159963
0.00157018
0.00150629
0.00136942
0.00113426
0.000939389
0.000832891
0.000800473
0.00349324
0.00352985
0.0036528
0.00393535
0.00413614
0.00436168
0.00477969
0.00532512
0.00602907
0.00565096
0.00355235
0.00352994
0.00355753
0.00367847
0.00390769
0.00417383
0.00451073
0.00493789
0.00574447
0.00558926
0.00387724
0.00363081
0.00357765
0.00361969
0.00373273
0.00393591
0.00422206
0.00466158
0.00547803
0.00555394
0.00448561
0.00399974
0.00370614
0.00366632
0.00374036
0.00392325
0.00422582
0.00466879
0.00545989
0.00556607
0.00494153
0.00445327
0.00402529
0.00387054
0.00391614
0.00408286
0.00442427
0.00489818
0.0055462
0.00557012
0.00598614
0.00538358
0.00482265
0.00450556
0.0045146
0.00470144
0.00508726
0.00550969
0.00577404
0.00566557
0.00731833
0.00655205
0.006035
0.00580715
0.00577354
0.00588536
0.00602859
0.00601682
0.00591583
0.00566926
0.00712709
0.00674492
0.00654924
0.00639254
0.0063015
0.00620618
0.00608128
0.00593905
0.00578238
0.00553531
0.0060534
0.00602214
0.00608722
0.00606645
0.00602156
0.00592826
0.00580181
0.00564698
0.00544888
0.00521606
0.00510797
0.00537024
0.00550713
0.00551721
0.00548778
0.0054059
0.00527343
0.005117
0.0049016
0.00458978
0.00309184
0.00313524
0.00320026
0.00334377
0.00350177
0.00361049
0.00377137
0.00401766
0.00440091
0.00499932
0.00312896
0.00314064
0.00317334
0.00323761
0.00338543
0.00353093
0.00369527
0.00389982
0.00427029
0.0047097
0.00335131
0.00322177
0.00319733
0.00322685
0.00329466
0.00340482
0.00353675
0.00371957
0.00404003
0.00445911
0.00374002
0.00349667
0.00331508
0.00326781
0.0032985
0.00336903
0.0034956
0.00366623
0.00394351
0.0043923
0.00399881
0.00379683
0.00356058
0.00341677
0.00337546
0.00341505
0.0035295
0.00371162
0.00399626
0.00438505
0.00451472
0.00434085
0.00405713
0.00381376
0.00366616
0.00365444
0.00373395
0.00390772
0.00416498
0.00446307
0.00570572
0.00546528
0.00507166
0.0047027
0.0044337
0.00432047
0.00434544
0.00442242
0.00456741
0.00470384
0.00608159
0.00583401
0.00554971
0.00528154
0.00511507
0.00503316
0.00496127
0.00488642
0.00487246
0.00481751
0.00571019
0.00563839
0.0055244
0.0053668
0.00524286
0.00517899
0.00508711
0.00497336
0.0048542
0.00475383
0.00467527
0.00482923
0.00498144
0.00501116
0.00499238
0.00494645
0.00486995
0.00479066
0.00466083
0.00451141
0.00285482
0.00290536
0.00297612
0.00305838
0.00317339
0.00326793
0.00333308
0.00344563
0.00358289
0.00394823
0.00286292
0.00287883
0.00293011
0.00299741
0.00307687
0.0031935
0.00327256
0.00339652
0.00352791
0.00379734
0.00299482
0.00293719
0.00294836
0.00298728
0.00305657
0.00313288
0.00319965
0.00330909
0.00345447
0.00363124
0.00330141
0.00316404
0.00305337
0.00303449
0.00306173
0.00312233
0.00318656
0.00326016
0.00338025
0.00354994
0.00344017
0.00336136
0.00325303
0.00317196
0.00314489
0.00315949
0.00319911
0.0032681
0.00338827
0.00355236
0.00370461
0.00367666
0.00359831
0.00349016
0.00341413
0.0033597
0.00332108
0.00335793
0.00345264
0.00359288
0.00448544
0.00448059
0.0043986
0.00423674
0.00402383
0.00384285
0.00371628
0.00367028
0.00369319
0.0037338
0.00491021
0.00487208
0.00477846
0.00461197
0.00441706
0.00426139
0.00414385
0.00405452
0.00400951
0.00397996
0.00482236
0.00478782
0.00471924
0.00460669
0.00447564
0.00436228
0.00426714
0.00418528
0.00410918
0.00406021
0.00430408
0.00423189
0.0042481
0.00426838
0.00427953
0.00425867
0.0042068
0.00414174
0.00405518
0.00404817
0.00279815
0.00283863
0.00294292
0.0030063