/*--------------------------------*- C++ -*----------------------------------*\
  =========                 |
  \\      /  F ield         | OpenFOAM: The Open Source CFD Toolbox
   \\    /   O peration     | Website:  https://openfoam.org
    \\  /    A nd           | Version:  9
     \\/     M anipulation  |
\*---------------------------------------------------------------------------*/
FoamFile
{
    format      ascii;
    class       volScalarField;
    location    "80";
    object      f6.gas;
}
// * * * * * * * * * * * * * * * * * * * * * * * * * * * * * * * * * * * * * //

dimensions      [0 0 0 0 0 0 0];

internalField   nonuniform List<scalar> 
137980
(
0.00394284
0.00393113
0.00406311
0.0043591
0.00471384
0.00508385
0.0054958
0.00614697
0.00680437
0.0082325
0.00387561
0.00387936
0.00407542
0.00442729
0.00485925
0.00531849
0.00582591
0.00653576
0.00743608
0.00827858
0.00381346
0.00382172
0.00403885
0.00443801
0.00491876
0.00545147
0.00604269
0.00678564
0.00778315
0.00830479
0.0037215
0.00373819
0.00395706
0.00435752
0.00487376
0.00548097
0.00613066
0.00689757
0.00774301
0.0082391
0.00362016
0.00364007
0.00383442
0.00420102
0.00470516
0.00536794
0.00607257
0.00682236
0.00759461
0.00798783
0.0035574
0.00355933
0.00369356
0.00399281
0.00442371
0.00504473
0.00581943
0.00659089
0.00731508
0.00766895
0.0035677
0.00354183
0.00359269
0.00377891
0.00410684
0.00457751
0.00520744
0.00598486
0.00674129
0.00721405
0.00373143
0.00358963
0.00357213
0.0036418
0.00383918
0.00416712
0.00459291
0.00510134
0.00560098
0.00607375
0.00402215
0.00376377
0.00362265
0.003617
0.00368004
0.00389437
0.00421181
0.00461184
0.00503749
0.00530704
0.00426589
0.00400016
0.00377941
0.00366372
0.00364541
0.00369862
0.00390676
0.00427481
0.00466517
0.00511103
0.00396453
0.00397983
0.00416037
0.00453133
0.00500156
0.00558322
0.00660515
0.00707268
0.00671134
0.00881069
0.00390994
0.00394587
0.00420768
0.00465663
0.00522941
0.00599861
0.00729001
0.00780756
0.00762669
0.0092508
0.00384658
0.0039033
0.0042127
0.00470664
0.00534653
0.00628417
0.00786503
0.00870294
0.00871789
0.00993281
0.00375461
0.00382445
0.00413184
0.0046476
0.00537409
0.00642467
0.00817796
0.00973134
0.0100913
0.0105122
0.00366888
0.00372635
0.00399714
0.00448411
0.00522717
0.00633202
0.00798966
0.0101761
0.0110551
0.011226
0.00363984
0.0036601
0.0038311
0.0042435
0.00490759
0.00596887
0.00754133
0.00988035
0.0111135
0.0115387
0.00372936
0.00367819
0.00371126
0.00396928
0.00448983
0.00531804
0.00663476
0.00868934
0.0106722
0.0113913
0.00412255
0.00381774
0.00373438
0.00378032
0.00409864
0.00467246
0.0055495
0.00685511
0.00877144
0.0104681
0.00476055
0.00419231
0.00387868
0.0037576
0.00384395
0.00421359
0.00479759
0.0056192
0.0066216
0.00771319
0.00491269
0.00449772
0.00413443
0.00385062
0.0037585
0.00388531
0.00423465
0.00483757
0.00566465
0.00585921
0.00398311
0.00403826
0.00428982
0.00475004
0.00539543
0.00650859
0.00784587
0.00765286
0.00680355
0.00968186
0.00394393
0.00404769
0.00441452
0.00501005
0.0058966
0.00747114
0.00868981
0.00850907
0.00763383
0.00996333
0.00389577
0.00404226
0.00446795
0.00516203
0.00628073
0.00827157
0.00956604
0.0095034
0.00854277
0.0104536
0.00382151
0.00399345
0.00444406
0.00520576
0.00646749
0.00878282
0.0104772
0.0106517
0.00982104
0.0108703
0.00377088
0.00390934
0.00432579
0.00509267
0.00643644
0.00897915
0.011241
0.0116276
0.0110907
0.0115506
0.00379678
0.00384861
0.00413378
0.00481566
0.00608237
0.00855524
0.0117681
0.0126549
0.0121156
0.0122582
0.00402907
0.0038964
0.00397984
0.00444836
0.00550813
0.00751646
0.0114552
0.0134233
0.0137259
0.0129134
0.00472332
0.00411056
0.00396943
0.0041543
0.00487609
0.00639167
0.00965381
0.013143
0.0143982
0.0143857
0.00548572
0.00472311
0.00416733
0.00404877
0.00439329
0.00543754
0.00744701
0.0114967
0.0137442
0.0144868
0.00553432
0.00504088
0.00458418
0.00406116
0.00411079
0.00472294
0.00607929
0.00819005
0.0103418
0.0104294
0.00404575
0.00420018
0.00460223
0.00525991
0.00644943
0.00893632
0.009143
0.00779608
0.00770591
0.0136898
0.00405717
0.00432776
0.0049237
0.0059621
0.00824414
0.00998381
0.00981662
0.00870788
0.00857085
0.0145585
0.00405802
0.00440768
0.00514803
0.00648296
0.00923257
0.0108548
0.0107832
0.00960987
0.00940674
0.0151815
0.00404132
0.00443249
0.00524169
0.00673207
0.00974774
0.0116399
0.0117512
0.0105504
0.0101157
0.0153262
0.00403546
0.00438447
0.00518111
0.00673514
0.00986808
0.0122902
0.0126477
0.0114447
0.0107807
0.0151483
0.00407763
0.00431037
0.00494964
0.00639186
0.00945585
0.0127021
0.0134264
0.0124942
0.0116006
0.014492
0.00429198
0.00428693
0.00468577
0.00583203
0.00843597
0.0126628
0.0140646
0.0138129
0.0128978
0.0141285
0.00486673
0.00445689
0.00453382
0.00529083
0.00730034
0.0118563
0.0143762
0.0150285
0.0139729
0.0145139
0.00555643
0.00487581
0.00459728
0.0048996
0.00631411
0.00985766
0.0141477
0.0157452
0.0160642
0.015809
0.00561284
0.00515627
0.00481796
0.00466604
0.00559293
0.00832838
0.0127684
0.0151221
0.0161329
0.0151815
0.00436511
0.00481362
0.00590225
0.00747807
0.0088511
0.00895093
0.00781647
0.00754846
0.012819
0.0192628
0.00460627
0.00546902
0.00761951
0.00947707
0.00996916
0.00947718
0.00880503
0.00912871
0.0163088
0.0190881
0.00480607
0.00600887
0.00873541
0.0105831
0.0109895
0.0104464
0.0101449
0.0117926
0.0171319
0.0172779
0.00494929
0.00627064
0.00928166
0.0114495
0.0119381
0.0116269
0.0115334
0.013748
0.0173028
0.0159275
0.00500937
0.0062918
0.00917059
0.0119992
0.0127589
0.0127814
0.0127542
0.0147976
0.0173532
0.0165051
0.00498349
0.00603389
0.00841298
0.0120992
0.0135129
0.0137287
0.0136535
0.0148642
0.0173141
0.0174268
0.00499661
0.00566725
0.00751204
0.011533
0.0139301
0.0146243
0.0144978
0.0149618
0.0170656
0.0175038
0.00521986
0.00542151
0.00668395
0.00981311
0.013744
0.0152582
0.0154475
0.0152797
0.0165706
0.0172221
0.00558537
0.0054194
0.00606488
0.0081079
0.0127895
0.015282
0.0163157
0.0160383
0.0168691
0.0174377
0.00562768
0.00549651
0.00575068
0.00706811
0.0110275
0.0148572
0.0165436
0.0173545
0.017833
0.0184261
0.00628013
0.00643679
0.00648476
0.00693822
0.007781
0.00755527
0.00748936
0.0112922
0.0193186
0.0192513
0.00778026
0.00832886
0.00858299
0.00869518
0.00872711
0.00866646
0.0105142
0.0161942
0.0176211
0.011533
0.00907997
0.00967417
0.00990998
0.00999684
0.0101092
0.0112993
0.0146228
0.0157255
0.0127091
0.00774547
0.00993281
0.0108425
0.0112478
0.0115013
0.0121818
0.0139355
0.0146702
0.0141644
0.00871995
0.00676665
0.0105131
0.0118415
0.0125042
0.0130557
0.0140789
0.0145221
0.0144169
0.0117674
0.00779583
0.00680385
0.0105533
0.0125905
0.0138304
0.0144558
0.014778
0.0146493
0.0136695
0.0104169
0.00794399
0.00744165
0.0101816
0.0126548
0.0145525
0.0151897
0.0152483
0.0148245
0.0135127
0.0104323
0.00859095
0.00935972
0.00903705
0.0122538
0.0144981
0.015602
0.0157562
0.0150995
0.013814
0.0109091
0.0096672
0.0121867
0.00808694
0.011172
0.0140314
0.0155666
0.0160585
0.015653
0.014546
0.0120914
0.010879
0.0126203
0.00715421
0.00928984
0.0128826
0.0152145
0.0161424
0.0164526
0.015755
0.0148583
0.0139745
0.0145655
0.00646284
0.00701704
0.00728839
0.00798514
0.00898297
0.0120673
0.0163071
0.0169762
0.0132365
0.0118437
0.00808922
0.00831983
0.00873394
0.0099529
0.0129634
0.0151165
0.0155714
0.0125992
0.0088821
0.00779784
0.00943328
0.00957901
0.0105886
0.0127921
0.014502
0.014774
0.0132666
0.0087411
0.00716386
0.00652808
0.0108316
0.0112991
0.0128328
0.014079
0.014394
0.013802
0.00999976
0.00732909
0.00652887
0.00623615
0.0123624
0.0130821
0.0141275
0.0143994
0.0140711
0.0119926
0.00821839
0.0069168
0.00661949
0.00660126
0.0136155
0.0142815
0.0145674
0.0144144
0.0134361
0.0103459
0.00773563
0.00709364
0.00720158
0.00870942
0.0143455
0.0148109
0.014879
0.014478
0.01296
0.00960019
0.00790164
0.00759689
0.00908167
0.0118703
0.0146418
0.0151599
0.0151863
0.0147134
0.0131122
0.0097723
0.00829923
0.0081484
0.0100885
0.0131525
0.0144712
0.0151929
0.0153952
0.0149841
0.0136059
0.0104118
0.00889287
0.00857655
0.0102018
0.0130035
0.0141491
0.0151674
0.0154056
0.0153647
0.0146137
0.0119348
0.0103397
0.00954918
0.0105884
0.0128874
0.0125873
0.0127817
0.0120212
0.0115948
0.0106905
0.00994483
0.00926756
0.00875693
0.00851763
0.00844393
0.0114215
0.01127
0.0104393
0.0100661
0.00922818
0.00845583
0.00779782
0.00738595
0.00707922
0.00692528
0.0109077
0.0105222
0.00987408
0.00946085
0.00841417
0.00770888
0.00722479
0.0069084
0.00677395
0.00662217
0.0109786
0.0105333
0.00982855
0.00890055
0.0077808
0.00723533
0.00698763
0.00695213
0.00709161
0.00727776
0.0113364
0.0107717
0.00988966
0.00857747
0.00762049
0.00724087
0.00721419
0.00801594
0.00891384
0.00929308
0.0120496
0.0112671
0.0100656
0.00863804
0.00766712
0.00736449
0.00762493
0.00878724
0.0100491
0.0107638
0.0128068
0.0119124
0.0104698
0.00885667
0.00775694
0.00738657
0.00747399
0.00850112
0.010389
0.0113655
0.0134957
0.0126877
0.0111195
0.00935124
0.00803195
0.00741707
0.00719239
0.00768018
0.0095956
0.0115551
0.0138715
0.0133964
0.0119915
0.0103762
0.00870345
0.00771633
0.00726907
0.0074082
0.00812482
0.0109972
0.0140072
0.0140666
0.0129079
0.0116269
0.010501
0.0090339
0.00812545
0.00831589
0.0089702
0.0108877
0.0105928
0.0108618
0.0101621
0.00987547
0.00940686
0.00908963
0.0086854
0.00848625
0.0083467
0.00830135
0.00972906
0.00962391
0.00892214
0.00863252
0.0082444
0.00809873
0.0080105
0.00797403
0.00783748
0.00764696
0.0088342
0.008456
0.00778693
0.00753967
0.00744481
0.00744063
0.00770051
0.00788783
0.00800619
0.00805401
0.00847177
0.00762052
0.00707977
0.00687723
0.00682543
0.00710615
0.00767074
0.00818303
0.00862635
0.00882431
0.00862042
0.00732135
0.00666828
0.00637889
0.00629654
0.00659029
0.00729296
0.00829931
0.00896121
0.00922491
0.00918624
0.007571
0.00669655
0.00612873
0.00592067
0.00597035
0.00662178
0.00801593
0.00909758
0.00944406
0.0102622
0.00835515
0.00702491
0.00630843
0.00589437
0.00575448
0.00599916
0.00681974
0.00838393
0.00933491
0.0115349
0.00937205
0.00780879
0.00693634
0.00650718
0.00618326
0.00614097
0.00644985
0.00753113
0.00913388
0.0123573
0.0105313
0.00919949
0.00830577
0.00815528
0.00768916
0.00725106
0.00732056
0.00763371
0.00910925
0.0129973
0.011545
0.0103228
0.0102671
0.0104936
0.00946735
0.00884758
0.00893929
0.00931029
0.00997779
0.0105945
0.0109546
0.0109733
0.0108085
0.0106218
0.0103834
0.0101407
0.00989753
0.00973293
0.00966276
0.00917284
0.00934885
0.00934466
0.00928628
0.00914109
0.00905532
0.00887037
0.00874164
0.00851979
0.00835153
0.00832137
0.00820486
0.0080841
0.00804581
0.00803853
0.00810184
0.00816579
0.00818003
0.00816269
0.00805702
0.0075565
0.00713017
0.00695212
0.00687901
0.00686748
0.00712274
0.00747135
0.00776689
0.00803587
0.00814672
0.00753026
0.00664211
0.00623736
0.00604032
0.00596845
0.00611311
0.00662625
0.0072869
0.00795804
0.00824681
0.0078465
0.00686676
0.00609905
0.00564756
0.00549024
0.00548246
0.00573335
0.00632111
0.00737228
0.00828154
0.00917192
0.00751793
0.00638405
0.00576403
0.00542608
0.00538528
0.00551636
0.00594297
0.00683319
0.00824234
0.0103069
0.00867901
0.007018
0.00616537
0.00581789
0.00582251
0.00592651
0.0062265
0.00677961
0.0081263
0.0107759
0.00957633
0.00800709
0.00691071
0.00696203
0.00714911
0.00719911
0.00736971
0.00771865
0.00863857
0.0109561
0.0097237
0.00840705
0.0082291
0.00891716
0.00900942
0.00872628
0.00877384
0.00887574
0.00914651
0.0128875
0.013969
0.0143413
0.014541
0.014564
0.0141951
0.013743
0.0130685
0.012638
0.0120992
0.0111281
0.0115073
0.0116188
0.0116456
0.0114987
0.0111702
0.0106995
0.0101507
0.00974609
0.00926706
0.0103576
0.0105502
0.0105885
0.0105192
0.0103042
0.0100568
0.00967136
0.00924088
0.00885884
0.00836631
0.00911638
0.00914173
0.0091517
0.00914874
0.00908098
0.0089746
0.00880269
0.0086167
0.00833328
0.007923
0.00825462
0.00796552
0.00783933
0.00775767
0.00770527
0.00768489
0.00769004
0.00766842
0.00754327
0.00745714
0.00787801
0.00741007
0.006957
0.00672214
0.00656084
0.00646395
0.00644978
0.00657587
0.00659756
0.00681546
0.00851596
0.00765949
0.00683501
0.0063055
0.00599065
0.00583579
0.00579757
0.00588596
0.00595175
0.00634699
0.00970166
0.00840848
0.00718314
0.00641172
0.00599435
0.00584342
0.00579767
0.00580975
0.00589827
0.00628151
0.0101551
0.00961684
0.00807389
0.00683134
0.00639629
0.00631608
0.00641134
0.00654604
0.00674143
0.00733195
0.0101899
0.00983664
0.00852866
0.00734206
0.00736875
0.00751693
0.00749913
0.00753084
0.00755957
0.00795542
0.00954203
0.00934302
0.00789055
0.00723869
0.00694486
0.00688132
0.00724791
0.00842549
0.0116983
0.0155742
0.011871
0.0104276
0.00933949
0.00865885
0.00844289
0.00898067
0.010853
0.0125904
0.0132666
0.013282
0.0128103
0.0125135
0.0117883
0.0114909
0.0114719
0.012076
0.0123343
0.0123946
0.0113971
0.00891527
0.0129015
0.0129601
0.012667
0.0124732
0.0123225
0.0122561
0.0119715
0.0108074
0.00852561
0.00759728
0.0121806
0.012677
0.0126275
0.0123946
0.0121993
0.0118153
0.01066
0.00869159
0.00764839
0.00713644
0.0109533
0.011912
0.0120762
0.0119957
0.0116177
0.0107948
0.00937495
0.00792715
0.0073095
0.00705026
0.0105248
0.0108365
0.0111992
0.0111933
0.0108878
0.0100205
0.00857996
0.00727916
0.0068313
0.00676563
0.0106925
0.0100793
0.0102805
0.0103571
0.0102511
0.00974714
0.0086552
0.00733288
0.00666715
0.00657955
0.0111423
0.0101182
0.00965407
0.00949286
0.00941135
0.00921366
0.00876608
0.00767034
0.00689383
0.0069395
0.0105427
0.0105477
0.00926303
0.00882191
0.00891236
0.00894774
0.00883006
0.00839055
0.00757789
0.0073884
0.0167415
0.0164665
0.0148901
0.0135722
0.0130566
0.0136241
0.0130313
0.0110223
0.00944795
0.00789489
0.0148694
0.0137373
0.0128574
0.012065
0.0116874
0.0118637
0.0127721
0.0126996
0.0120282
0.0105029
0.0134021
0.0128536
0.0122871
0.0116865
0.0114175
0.011603
0.0121108
0.0127635
0.012445
0.0110454
0.0123102
0.0121691
0.0116881
0.011195
0.0112397
0.0115141
0.0119721
0.0124583
0.0120102
0.0105897
0.0119415
0.0118422
0.0112863
0.0109686
0.0110359
0.0113263
0.0115876
0.0116771
0.0109625
0.00994607
0.0117978
0.0114171
0.0107064
0.0106149
0.0108126
0.010941
0.0110152
0.0110049
0.0102929
0.00971473
0.0116873
0.0110616
0.0104266
0.0102884
0.0104376
0.0104944
0.0105274
0.010431
0.00994673
0.00954206
0.0113159
0.0109082
0.0102467
0.00990687
0.00994496
0.0100139
0.0101541
0.0101425
0.0097466
0.00918784
0.0106763
0.0108434
0.0101987
0.0096227
0.00939217
0.00942547
0.00959232
0.00972209
0.00933825
0.00911341
0.00976066
0.0103812
0.0100611
0.00953633
0.00926305
0.00920528
0.00935483
0.00957262
0.00928871
0.00910662
0.0187186
0.0173944
0.0165303
0.0150364
0.0131706
0.0119619
0.0113558
0.0113065
0.0113937
0.0117278
0.0151195
0.0142436
0.0136171
0.0125529
0.0114101
0.0105955
0.0102689
0.0102966
0.010485
0.0104921
0.0134512
0.0131504
0.0126485
0.0116081
0.010639
0.0098705
0.00947329
0.00953004
0.00979208
0.00998214
0.0128247
0.0126355
0.0118699
0.0105503
0.00955778
0.00896261
0.00896873
0.00913076
0.00949909
0.00975916
0.0125774
0.0122159
0.010899
0.00974158
0.00896265
0.00868721
0.00880563
0.00908966
0.0094443
0.00962867
0.0123461
0.0116895
0.0102404
0.00924128
0.00863439
0.00860214
0.00878328
0.00914391
0.0094295
0.00955282
0.0119713
0.011269
0.009947
0.00900085
0.00851884
0.00854803
0.00884767
0.0092043
0.00937552
0.00942878
0.0115601
0.0110669
0.00982762
0.00890991
0.00848819
0.00852327
0.0089339
0.0093187
0.0093863
0.00938951
0.011145
0.01089
0.00978128
0.00897647
0.0086234
0.00861131
0.00902047
0.00948364
0.00967621
0.00987057
0.0107861
0.0105749
0.00966795
0.00912393
0.00893428
0.00909732
0.00945633
0.00970657
0.0097696
0.00965536
0.0136478
0.0127366
0.0113417
0.0103577
0.00971704
0.00907562
0.00866737
0.00879831
0.00937699
0.00973471
0.0137668
0.0126506
0.0109475
0.00964459
0.00875039
0.00811395
0.00793324
0.00801204
0.00835476
0.00860724
0.0130616
0.0117452
0.00996487
0.00861122
0.00764827
0.00714253
0.0071232
0.00725558
0.00764237
0.0078459
0.0127722
0.0113322
0.00947016
0.00788005
0.00705201
0.00672137
0.00672816
0.00686363
0.00724574
0.00757912
0.0123075
0.010524
0.00878085
0.00743584
0.00681658
0.00658115
0.00660796
0.00676327
0.00710869
0.00761569
0.011901
0.0101332
0.00849775
0.00729684
0.00675905
0.00657276
0.0066083
0.00679636
0.00712734
0.00769106
0.0113967
0.00973758
0.00838007
0.00728712
0.00690803
0.00681589
0.0067944
0.00691041
0.00723741
0.00786607
0.0110702
0.00955146
0.00836401
0.00757534
0.00734505
0.00732112
0.00725848
0.00721566
0.00741292
0.00802468
0.0108396
0.00938335
0.00848021
0.00793959
0.00783484
0.00803448
0.00805052
0.00803951
0.00809869
0.00843844
0.0107275
0.00928417
0.00855317
0.00825609
0.0083122
0.00857248
0.00863291
0.00851786
0.00828413
0.00817513
0.0122092
0.0102954
0.00915771
0.00830424
0.00781575
0.0073468
0.00710066
0.0073483
0.00812731
0.0092452
0.0125867
0.010488
0.00903754
0.00796417
0.00732109
0.00689485
0.00668154
0.00675627
0.00715204
0.00728804
0.0121849
0.00998704
0.00851297
0.00751852
0.00698277
0.0066055
0.00638145
0.00639342
0.00656191
0.00670711
0.0119598
0.0097648
0.00829617
0.0073301
0.00685248
0.00650733
0.00627924
0.00620169
0.0062657
0.00642589
0.0114192
0.00930974
0.00802942
0.00724647
0.0068169
0.00649516
0.00626955
0.00614922
0.00618162
0.00640699
0.0111448
0.00909107
0.00790941
0.00722697
0.00687831
0.00664203
0.00641161
0.00621645
0.00622522
0.00655978
0.0106516
0.00872943
0.00780251
0.00730662
0.00712735
0.0069559
0.00671931
0.00644549
0.00636939
0.00676652
0.0104073
0.0085569
0.00775652
0.00749077
0.00748151
0.00741333
0.00716941
0.00686958
0.00670086
0.00682218
0.0101816
0.00833885
0.00771259
0.00761964
0.00777673
0.0077897
0.00760106
0.00739067
0.00738386
0.00744793
0.0100972
0.00820027
0.00765617
0.00773536
0.00795205
0.00797898
0.00780886
0.00759842
0.00744317
0.00708468
0.0143641
0.0133676
0.01237
0.0112444
0.0105595
0.0100106
0.00982311
0.00954298
0.00922551
0.00809663
0.0146519
0.0136485
0.0126129
0.0112188
0.0103748
0.00982086
0.00933634
0.00908082
0.00846989
0.00820661
0.0146134
0.0137036
0.0128409
0.0113485
0.0103595
0.00973043
0.00908946
0.00853017
0.00799701
0.00719221
0.0142434
0.0136759
0.0130786
0.0118085
0.0106299
0.00972335
0.00885331
0.00812558
0.00738521
0.00649429
0.0139136
0.0133715
0.01316
0.0121474
0.0109316
0.0098309
0.00876326
0.00792933
0.00712756
0.00619095
0.0135178
0.0129322
0.0131755
0.0124634
0.011233
0.0101296
0.00878752
0.00787722
0.00705482
0.00612835
0.0133656
0.0121693
0.0129341
0.0126251
0.0115644
0.0105005
0.00919231
0.00808563
0.0073544
0.00641259
0.0133604
0.0111586
0.0123421
0.0126805
0.0117559
0.0109603
0.00966595
0.00845743
0.00774226
0.00707718
0.0138456
0.0103138
0.0114242
0.0125245
0.0118301
0.0112689
0.0105002
0.00906068
0.00816158
0.00767285
0.0140145
0.00980509
0.00996909
0.0119424
0.011818
0.0113742
0.0110551
0.0105817
0.00969268
0.00914392
0.014962
0.0124495
0.0115122
0.0110022
0.010493
0.0100158
0.00936975
0.00866576
0.00848071
0.00881082
0.014745
0.0126727
0.0115844
0.0110206
0.0104216
0.00985558
0.00910335
0.00838659
0.00828155
0.0084076
0.0149442
0.0125646
0.0113838
0.0109195
0.0103983
0.00981883
0.00900362
0.00825932
0.00794814
0.00779877
0.0150251
0.0123536
0.0111775
0.0108685
0.0104201
0.00982294
0.00895664
0.00811992
0.00763032
0.00745796
0.0148958
0.0119818
0.0108204
0.0107084
0.010482
0.00992088
0.00894596
0.00803358
0.00745729
0.00707278
0.0143258
0.0114906
0.0105024
0.0105971
0.0105822
0.0101231
0.00903623
0.00799325
0.00733635
0.00672867
0.0140244
0.0109497
0.0101263
0.010398
0.0106374
0.0103064
0.00924904
0.00798788
0.00733568
0.00675248
0.0135926
0.0104982
0.00973435
0.010213
0.0106378
0.0103665
0.00944364
0.00816675
0.0075989
0.00720802
0.0134293
0.0101585
0.0093266
0.00992158
0.0105124
0.0103605
0.00949518
0.00824774
0.00766317
0.00716439
0.0133958
0.0099524
0.00896565
0.0096407
0.0101711
0.0101521
0.00946547
0.00829791
0.00751727
0.00696178
0.0118137
0.0101203
0.00936467
0.00905209
0.00891115
0.00884762
0.00901905
0.00970755
0.00999578
0.0101073
0.0116504
0.0103948
0.00986313
0.00951036
0.00934191
0.00928862
0.00944452
0.00996365
0.0102238
0.0107226
0.0123732
0.010889
0.0103117
0.00997407
0.00982805
0.00979215
0.0100586
0.0105589
0.0109464
0.0112702
0.0133618
0.0115451
0.0108313
0.0104822
0.0103489
0.0104251
0.0107369
0.0109385
0.0109843
0.0106729
0.0143581
0.0122217
0.0113402
0.0109486
0.0108049
0.0108287
0.0109278
0.0109336
0.0107106
0.00941249
0.014914
0.0130917
0.0118788
0.0113634
0.0111041
0.0109846
0.0109294
0.0107952
0.0100653
0.00907516
0.0152585
0.0137937
0.0123883
0.0118093
0.0113105
0.0110685
0.0108867
0.0104746
0.00962695
0.00894171
0.0152334
0.0144451
0.0130445
0.012177
0.011704
0.0111612
0.0107651
0.0102159
0.0093722
0.00863481
0.0150435
0.014712
0.0137421
0.0126232
0.0121024
0.0113581
0.0108131
0.010059
0.00908079
0.0086332
0.0146744
0.0148157
0.0139718
0.0128592
0.0123851
0.011803
0.0110998
0.0101811
0.00914804
0.00908377
0.00713816
0.00718492
0.0063692
0.00602034
0.0057213
0.00576593
0.0061363
0.00671438
0.00712361
0.00770272
0.00756783
0.0071468
0.00633169
0.00605551
0.00592336
0.00605606
0.00645033
0.00699952
0.00751569
0.00849161
0.00810035
0.00723607
0.00658212
0.00634899
0.00629578
0.00638705
0.00677956
0.00736568
0.00830795
0.0087519
0.00862372
0.00763536
0.00707494
0.00683667
0.00675079
0.00678114
0.00730038
0.00817135
0.00857147
0.00835515
0.00895874
0.00809706
0.00762632
0.00740927
0.00729907
0.00748896
0.00816209
0.00850545
0.00854121
0.00759146
0.00922317
0.0084189
0.0080607
0.00795478
0.007972
0.00818537
0.00855194
0.00871111
0.0084287
0.00702448
0.00934752
0.00877274
0.00850776
0.00845966
0.00845252
0.00866701
0.00885675
0.00879478
0.00817931
0.0068949
0.00948814
0.00908054
0.00886559
0.00886311
0.0088888
0.00908992
0.00911009
0.00889913
0.00819957
0.00691704
0.00972797
0.00973287
0.00946328
0.00935395
0.00932311
0.00933436
0.00930668
0.00906983
0.00832869
0.00697883
0.0100133
0.0099951
0.0097953
0.0097873
0.00977083
0.00973175
0.009662
0.00944819
0.00865307
0.00720463
0.00336653
0.00341285
0.00365232
0.00452432
0.00535089
0.00557062
0.00614629
0.00549025
0.00362815
0.00318404
0.0034444
0.0035541
0.00398657
0.00478134
0.00534862
0.00573221
0.00611451
0.00563813
0.00419484
0.0033588
0.0041034
0.00424889
0.00463281
0.00509151
0.00537677
0.00566126
0.00596016
0.00555472
0.0042095
0.00336085
0.00443094
0.00497741
0.00503864
0.00513585
0.00528487
0.00545605
0.00545084
0.00503065
0.00426524
0.0035019
0.00409449
0.00496999
0.00493558
0.00494972
0.00491861
0.0048521
0.00465712
0.00433464
0.00426375
0.00373262
0.00409996
0.00471187
0.00450781
0.00443729
0.00440509
0.00429795
0.00421478
0.00421615
0.00426452
0.00363922
0.00401696
0.00481196
0.00464377
0.00458951
0.00447415
0.00440183
0.00429738
0.00424103
0.00388268
0.00350576
0.0038644
0.00462789
0.00465577
0.00468372
0.00458252
0.0044618
0.00431163
0.00406511
0.00361556
0.00343498
0.00369057
0.00452735
0.00441959
0.00441141
0.00451584
0.00452975
0.00441771
0.00404596
0.00359816
0.00343357
0.00364992
0.00417479
0.00420188
0.00419262
0.00431014
0.00446717
0.00435757
0.00394096
0.00360521
0.00348338
0.00283173
0.00294056
0.00296415
0.00296585
0.00287053
0.00257339
0.00228783
0.00218177
0.00215138
0.00214581
0.00286539
0.00293414
0.00294051
0.00287754
0.00266856
0.00235505
0.00221923
0.00218437
0.00219682
0.00212965
0.00288427
0.00292103
0.00291203
0.00278903
0.00252879
0.00227715
0.00219479
0.00217399
0.00213393
0.00212281
0.00288022
0.00289492
0.0028507
0.00270358
0.00246515
0.0022762
0.00219538
0.00217123
0.00214422
0.00215754
0.00286805
0.0028728
0.0028144
0.00267169
0.00247517
0.00230126
0.00223282
0.00218349
0.00219301
0.00222757
0.00284873
0.00284128
0.0027594
0.00264379
0.00251085
0.00237201
0.00228643
0.002286
0.00229218
0.00226856
0.00281357
0.00279475
0.00271943
0.0026223
0.00254049
0.00248756
0.0024161
0.00238705
0.00232343
0.00223712
0.00278421
0.00275178
0.00262432
0.0022985
0.002337
0.0023979
0.0023896
0.00236692
0.00220302
0.00216713
0.00274946
0.00252437
0.00220825
0.00214979
0.00214665
0.00221455
0.00224659
0.00222003
0.00215285
0.00212891
0.00266858
0.00242129
0.00216135
0.00216965
0.00215559
0.00221226
0.00220249
0.00207488
0.00199365
0.00191651
0.00339178
0.0034587
0.0034805
0.00348989
0.00346396
0.00339604
0.00322781
0.00292706
0.00258589
0.00242225
0.0033593
0.00338321
0.00337157
0.00332345
0.0032195
0.00301469
0.00271609
0.00246924
0.00229748
0.00222569
0.00325379
0.00322407
0.00313197
0.00298261
0.00277504
0.00252431
0.00232718
0.00218549
0.00212385
0.00211003
0.00302296
0.00291889
0.00273254
0.00254744
0.00235635
0.00218623
0.00206364
0.00200907
0.00199808
0.00205374
0.00261138
0.0025025
0.0022963
0.00219378
0.00203263
0.00195566
0.00190113
0.0018857
0.00189461
0.00194362
0.00228975
0.00218168
0.00203474
0.00196436
0.00186266
0.00182364
0.00177864
0.00177949
0.00180747
0.00185375
0.00204335
0.00192495
0.00182701
0.00175108
0.00170503
0.00168869
0.0016924
0.00170896
0.00175278
0.00177837
0.00185905
0.00178546
0.00171846
0.00168906
0.00167703
0.00163913
0.00165167
0.00166966
0.0016921
0.001708
0.00181099
0.00174916
0.00172492
0.00173063
0.00172466
0.00164468
0.0016282
0.00164948
0.00166809
0.00166766
0.00185711
0.00176036
0.00173488
0.00176767
0.00174609
0.00164609
0.00161955
0.00164235
0.00164302
0.00151209
0.00203451
0.00188594
0.0018592
0.00185034
0.00185509
0.00190837
0.00197882
0.00203577
0.00209227
0.00218897
0.00203793
0.00187529
0.00182558
0.00181234
0.00182764
0.00188721
0.00193342
0.00199072
0.00208117
0.00223221
0.00208504
0.00189585
0.00182627
0.00179715
0.00180621
0.00184756
0.00189526
0.00196217
0.00206856
0.00224271
0.00224449
0.00197945
0.0018726
0.00181706
0.00180072
0.00181529
0.00185904
0.00193195
0.00201263
0.00209822
0.00254541
0.00223621
0.00202457
0.00189805
0.00183533
0.00180672
0.00181684
0.00187791
0.00191918
0.00191291
0.0027054
0.00250479
0.00229507
0.00209781
0.00192615
0.00181895
0.00176633
0.00178558
0.00178577
0.00172094
0.00274074
0.00260693
0.00248666
0.00228867
0.00205817
0.00187187
0.00173951
0.00167645
0.0016427
0.00157886
0.0027075
0.0026087
0.00250902
0.00240022
0.00219548
0.00194195
0.00175196
0.00161657
0.00155347
0.00151579
0.00261386
0.00257222
0.00249675
0.00241046
0.00227617
0.00204464
0.00179415
0.0016095
0.00152431
0.00149358
0.00237221
0.00241876
0.00241158
0.00237443
0.00229076
0.00211964
0.00186169
0.00164027
0.00152069
0.00148629
0.0050118
0.00510499
0.00527294
0.00558543
0.00580376
0.00604858
0.00655704
0.00729856
0.00830317
0.00781732
0.00510639
0.00513286
0.00521596
0.00542795
0.00570147
0.00599836
0.00638199
0.00702449
0.00810483
0.00781034
0.00551808
0.00529049
0.00527628
0.00537486
0.00558419
0.00587909
0.00626006
0.00691579
0.00796767
0.00782592
0.00619713
0.00575714
0.00547633
0.00546926
0.00560655
0.00590924
0.00630928
0.00700246
0.00800566
0.00786478
0.00676107
0.00630498
0.00589163
0.00577326
0.00586331
0.00614187
0.00669209
0.00735628
0.00811163
0.00789444
0.00801573
0.00744456
0.00689521
0.00662137
0.00669554
0.00701161
0.00758649
0.00814045
0.00819308
0.00793572
0.00965788
0.00885459
0.00840507
0.00822638
0.00825459
0.00842049
0.008538
0.00842936
0.00817261
0.00781703
0.00947858
0.00911667
0.00896531
0.00879981
0.00867328
0.00850257
0.0083923
0.00820733
0.00794272
0.00757482
0.0081275
0.00812517
0.00824507
0.00824911
0.0082354
0.00810342
0.00791279
0.00770545
0.00746393
0.00717749
0.00687982
0.00721117
0.00748066
0.00759821
0.00755223
0.00744125
0.00729205
0.00711403
0.00687078
0.00651172
0.00451221
0.00462458
0.00472452
0.00490781
0.00507742
0.005187
0.00538745
0.00567057
0.00611405
0.00693262
0.00456483
0.00461651
0.00471356
0.00483223
0.00504061
0.00517246
0.00537516
0.00560208
0.00602736
0.00674902
0.00484982
0.00472659
0.00474711
0.00482868
0.00496709
0.00513476
0.00533207
0.00555894
0.00595551
0.00657691
0.00525966
0.0050572
0.00489809
0.00489846
0.00497232
0.00512913
0.00533506
0.00558092
0.00596505
0.00658382
0.00556961
0.00540904
0.0051946
0.00509469
0.00509082
0.00518377
0.00540031
0.00568017
0.00609693
0.0066574
0.00619691
0.00606449
0.00581321
0.0055913
0.00547783
0.00551648
0.00567722
0.00596052
0.006381
0.00684466
0.00760249
0.00737723
0.00698998
0.00665602
0.00643079
0.00638579
0.00648323
0.0066817
0.0069088
0.00706245
0.00808092
0.00785944
0.00759513
0.00736843
0.00726078
0.00723592
0.00720322
0.00719204
0.00714951
0.00703388
0.00769515
0.00765104
0.00758514
0.00749097
0.00740353
0.00735727
0.00725482
0.00713258
0.00700355
0.00684253
0.00646797
0.00672421
0.00697325
0.00701583
0.00700964
0.00698241
0.00690559
0.00677932
0.00656724
0.00640592
0.00429982
0.00438309
0.00450566
0.00462591
0.00475662
0.00485618
0.00494117
0.00505271
0.00520044
0.00560774
0.00428903
0.00431851
0.00441561
0.00454137
0.00466452
0.00479705
0.00489779
0.00502327
0.0051654
0.00551809
0.00442034
0.00438979
0.00442955
0.00452538
0.00465062
0.00477384
0.00488574
0.00502229
0.00516336
0.00545513
0.00475054
0.0046507
0.00456072
0.00458191
0.0046563
0.00477922
0.00489233
0.0050255
0.00517535
0.00545061
0.00491419
0.00487399
0.00479552
0.00474997
0.00476168
0.00482067
0.00492269
0.00505141
0.00522527
0.00547937
0.00523777
0.00525042
0.00520776
0.00513755
0.00508085
0.00506227
0.00508527
0.0051696
0.00534393
0.00556976
0.00613971
0.00618091
0.00610927
0.00597392
0.00579161
0.00565689
0.00558455
0.00559646
0.00566763
0.00576625
0.00666697
0.00664286
0.00656971
0.00643501
0.00626927
0.00615616
0.00608155
0.00604094
0.00602311
0.00601242
0.00659964
0.00657875
0.00653102
0.00644893
0.00635169
0.00627133
0.00620044
0.00612849
0.0060513
0.00601892
0.00603096
0.00598304
0.00602044
0.0060533
0.00608662
0.00609958
0.00607758
0.00602804
0.005915
0.0059277
0.00431728
0.00438805
0.00454054
0.0046429
0.00473968
0.00479395
0.00481945
0.00484124
0.00487883
0.00501518
0.00415274
0.004175
0.00427547
0.00439869
0.00450649
0.00460026
0.00466982
0.0047328
0.00478778
0.00494646
0.00419027
0.0041926
0.00424201
0.00435277
0.00445975
0.00455641
0.00463416
0.00472055
0.00478455
0.00492929
0.00439346
0.00437278
0.00435222
0.00438801
0.00447346
0.0045719
0.00465392
0.00473885
0.00481461
0.00494268
0.00454513
0.00453685
0.00454518
0.0045501
0.00458912
0.00465337
0.00471951
0.0047873
0.00485971
0.00496989
0.00470954
0.0047827
0.0048552
0.00490527
0.00492089
0.00493637
0.00495107
0.00494509
0.00495956