/*--------------------------------*- C++ -*----------------------------------*\
  =========                 |
  \\      /  F ield         | OpenFOAM: The Open Source CFD Toolbox
   \\    /   O peration     | Website:  https://openfoam.org
    \\  /    A nd           | Version:  9
     \\/     M anipulation  |
\*---------------------------------------------------------------------------*/
FoamFile
{
    format      ascii;
    class       volScalarField;
    location    "80";
    object      f9.gas;
}
// * * * * * * * * * * * * * * * * * * * * * * * * * * * * * * * * * * * * * //

dimensions      [0 0 0 0 0 0 0];

internalField   nonuniform List<scalar> 
137980
(
0.0116373
0.0115705
0.0116611
0.0120086
0.0124708
0.0130708
0.0139052
0.0153631
0.0163309
0.0183049
0.0115064
0.0114928
0.0117071
0.0121559
0.0127352
0.0134632
0.0144578
0.0160826
0.0174861
0.0187848
0.0113966
0.0114008
0.0116836
0.0122006
0.0128557
0.0136847
0.0147428
0.0163641
0.0181931
0.0189786
0.0112306
0.0112496
0.0115604
0.0121134
0.0128344
0.0137604
0.0148528
0.0163048
0.0180944
0.0188365
0.011026
0.011058
0.0113707
0.0119103
0.0126374
0.0136301
0.0147601
0.0160726
0.0175592
0.0182801
0.0108908
0.0108981
0.0111433
0.0116168
0.0122751
0.0132165
0.0144131
0.0156457
0.0168626
0.0174695
0.0109102
0.0108554
0.0109705
0.0112923
0.0118216
0.0125723
0.0135962
0.0147928
0.0159383
0.016739
0.0111923
0.0109634
0.0109378
0.011067
0.0114045
0.0119429
0.0126834
0.0135669
0.0144073
0.0151668
0.0117859
0.0112843
0.0110537
0.0110425
0.0111402
0.0114875
0.0120374
0.012751
0.0134632
0.0139281
0.0122741
0.011739
0.0113915
0.0111661
0.0111149
0.0111774
0.0115173
0.0121276
0.0129101
0.0135227
0.0116294
0.0116146
0.0117918
0.0122767
0.0130167
0.0140692
0.0159052
0.0169127
0.0165068
0.0189225
0.0115339
0.0115721
0.0119073
0.0125463
0.0134474
0.0147298
0.0170001
0.0180209
0.0179491
0.0196532
0.0114369
0.0115161
0.0119439
0.0126576
0.0136635
0.0151552
0.0176741
0.0191909
0.0194515
0.0205392
0.011283
0.0113957
0.0118589
0.0126336
0.0137379
0.0153801
0.018101
0.0203894
0.0209835
0.021276
0.0111246
0.0112319
0.0116803
0.0124365
0.0135643
0.0152854
0.0178899
0.0208652
0.0220835
0.0222408
0.0110806
0.0111208
0.0114363
0.0121087
0.0131573
0.0148139
0.0172151
0.0205028
0.0221066
0.0226529
0.0112826
0.0111841
0.0112432
0.0117011
0.0125651
0.013934
0.0159791
0.0190405
0.0215357
0.022454
0.0119983
0.0114826
0.0113118
0.0113939
0.0119489
0.0129548
0.0144626
0.0165183
0.0192715
0.0213384
0.0129975
0.0121278
0.0116053
0.0113584
0.0115184
0.0121608
0.0132245
0.0146701
0.0162219
0.0178351
0.0133494
0.012652
0.0121046
0.011553
0.0113659
0.0115711
0.0121917
0.0132198
0.0146601
0.0149882
0.0116559
0.0117257
0.012078
0.0127821
0.0137682
0.0153866
0.0175776
0.0179015
0.0167937
0.0202748
0.0115983
0.0117741
0.0123389
0.0132272
0.0145677
0.0168858
0.0188611
0.019126
0.0181532
0.0208227
0.0115372
0.0117964
0.0124716
0.0135355
0.0151783
0.01791
0.0198729
0.0202706
0.0195686
0.0214473
0.0114305
0.0117504
0.0124955
0.0136616
0.0154922
0.0185939
0.0208272
0.0214084
0.021034
0.0220694
0.0113563
0.0116437
0.0123702
0.0135862
0.0155634
0.0188935
0.021616
0.0223862
0.0223465
0.0227641
0.0114244
0.0115656
0.0121156
0.0132559
0.0152052
0.0185274
0.0221
0.0233217
0.0234287
0.0235208
0.0118035
0.011664
0.0118716
0.0127427
0.0144769
0.0174188
0.0218232
0.0240245
0.0246686
0.0242763
0.0127128
0.0119854
0.0118431
0.0122682
0.0135547
0.015929
0.0202808
0.0238093
0.025269
0.0255121
0.0135919
0.0127055
0.0120767
0.0120363
0.0127627
0.0145364
0.0175897
0.0223745
0.0246857
0.0256724
0.013828
0.0131976
0.0125823
0.0120121
0.0121984
0.0133532
0.0155662
0.0187981
0.0214312
0.0212672
0.0117949
0.0120776
0.0127333
0.013731
0.0153288
0.0183919
0.0192067
0.0180924
0.0181189
0.0243249
0.0118607
0.012355
0.0133096
0.014789
0.0175505
0.0199727
0.0204133
0.0195227
0.0193639
0.0251774
0.0119135
0.0125662
0.0137444
0.0155766
0.0187109
0.0209282
0.0214465
0.0207612
0.0205685
0.0256219
0.0119356
0.0126611
0.0139559
0.0159798
0.0193392
0.0216191
0.0222335
0.0219602
0.0214381
0.0258229
0.0119644
0.0126652
0.0139706
0.0160807
0.0195511
0.0221678
0.0229346
0.0229413
0.0222807
0.025707
0.0120498
0.012578
0.0137224
0.015776
0.01923
0.022489
0.0236202
0.0237828
0.023098
0.0252442
0.0123271
0.0125208
0.0133499
0.0151641
0.0183872
0.022425
0.0241651
0.0246307
0.0242372
0.0250708
0.0129431
0.0126568
0.0130673
0.0144478
0.0171904
0.0218378
0.0242973
0.0252409
0.0250222
0.025441
0.0135432
0.0130307
0.0129737
0.0138285
0.0159916
0.0202572
0.0241442
0.0259509
0.0266615
0.0265762
0.0137338
0.0132981
0.013092
0.0132946
0.0149793
0.0187125
0.0230227
0.02548
0.0267644
0.0263594
0.0124806
0.0132442
0.0148473
0.0164569
0.0181298
0.0186849
0.0178685
0.0176626
0.0236927
0.0289458
0.0129499
0.014261
0.0168056
0.0189402
0.0196896
0.0197619
0.0193072
0.0197689
0.0265248
0.0286848
0.0133553
0.0151465
0.0182321
0.0203132
0.0209346
0.021
0.0208685
0.0225503
0.0269013
0.0267572
0.0136677
0.0155858
0.0189309
0.0212515
0.0219711
0.0221583
0.0223419
0.0243169
0.0269969
0.0252143
0.0138161
0.0157034
0.0189919
0.021807
0.0228346
0.0232058
0.0234448
0.0252502
0.02698
0.025759
0.0138034
0.0154708
0.0184523
0.0219099
0.0235031
0.0240818
0.0242894
0.0254463
0.0268859
0.0263695
0.0137293
0.0149854
0.0175008
0.0214551
0.0237863
0.0248226
0.0250574
0.0255229
0.026594
0.0263854
0.01377
0.0145372
0.0165003
0.0201937
0.0235867
0.0251098
0.0256611
0.0257826
0.0263203
0.0262095
0.0138881
0.0141886
0.0156088
0.0184734
0.0227858
0.0249944
0.0260183
0.0261351
0.0266097
0.0264886
0.0138416
0.0140182
0.0149488
0.0170112
0.0216247
0.0244893
0.0260294
0.0269218
0.0274181
0.0275749
0.0150693
0.0152451
0.015348
0.0158964
0.0171342
0.0174153
0.0174864
0.0221423
0.0286613
0.0282705
0.0167297
0.0173821
0.0177142
0.0181935
0.0186516
0.0189147
0.0211702
0.0260243
0.0271415
0.0209846
0.0182753
0.0190637
0.0194366
0.0199203
0.0205233
0.0219804
0.0246608
0.0255163
0.0226525
0.0165252
0.0194203
0.0204442
0.0209302
0.0215248
0.0226083
0.0240729
0.0245789
0.0240014
0.0175344
0.0146487
0.0201758
0.0215531
0.0222094
0.0231019
0.0241056
0.0244923
0.0242078
0.0213115
0.0162298
0.0145846
0.0203872
0.0223548
0.023452
0.0242701
0.0246586
0.0244737
0.0233504
0.0198371
0.0163184
0.0152966
0.0201444
0.0224802
0.0242618
0.0248882
0.0249591
0.0245314
0.0231822
0.0197978
0.0170009
0.0171926
0.0192585
0.0221159
0.0242363
0.0251313
0.025303
0.0247083
0.0234916
0.0203517
0.0183845
0.0199729
0.0177932
0.0211703
0.0238239
0.0250548
0.0253787
0.0251178
0.0241274
0.0217366
0.019954
0.0208969
0.0164061
0.0193393
0.0227955
0.0247685
0.0253674
0.0255265
0.0250586
0.0244
0.0235153
0.0236587
0.0157068
0.0163753
0.0170128
0.0181221
0.0197162
0.0226856
0.026083
0.0265077
0.0226752
0.021012
0.0174054
0.017927
0.0188682
0.0204839
0.0233977
0.0250587
0.0253104
0.0225196
0.0182753
0.0168887
0.0189768
0.0194805
0.0209431
0.0230981
0.024555
0.0246648
0.0231556
0.0180765
0.0159607
0.0149397
0.0205388
0.0212138
0.0229511
0.0241278
0.0243563
0.0236381
0.0198688
0.0161631
0.0148412
0.0141782
0.0219545
0.0227581
0.0238921
0.0241454
0.0238584
0.0218774
0.0174215
0.0154768
0.0147888
0.0144388
0.0229576
0.0237672
0.0241154
0.0240453
0.0231452
0.0200462
0.0166094
0.0155175
0.0152263
0.0161274
0.0235935
0.0241198
0.0242063
0.023931
0.0223835
0.0190815
0.0166169
0.0158264
0.0166479
0.0189734
0.0237703
0.0243054
0.0243688
0.0239862
0.0224886
0.0191825
0.0168928
0.0164121
0.0175064
0.0204308
0.0236066
0.0242405
0.0243957
0.0241743
0.0228257
0.019783
0.0175846
0.0170128
0.0179323
0.0206315
0.0233396
0.0241277
0.0243381
0.0243325
0.0235616
0.0212775
0.0192713
0.0183085
0.0189626
0.0206782
0.022562
0.0227854
0.0221404
0.0214548
0.0204702
0.0195895
0.0187599
0.0180692
0.0175969
0.0173802
0.0214126
0.0213529
0.0203151
0.0197397
0.018802
0.0178928
0.0170643
0.0164164
0.0158192
0.0154536
0.0207745
0.0204256
0.0195404
0.0189349
0.0178164
0.0169901
0.0161626
0.0155673
0.0152428
0.0147715
0.0206319
0.0200901
0.0192693
0.0181708
0.0168571
0.0158455
0.0152403
0.0150368
0.0149657
0.0149367
0.0208189
0.0202213
0.0190781
0.0175393
0.0161453
0.0153479
0.0151134
0.0153368
0.0161771
0.0165388
0.0212289
0.0205101
0.0190908
0.0173043
0.0157883
0.0151424
0.0150307
0.0158381
0.0171809
0.0179721
0.0217717
0.0209205
0.019282
0.0174281
0.0157177
0.0149534
0.0148202
0.0156331
0.0174011
0.0186303
0.0222869
0.0214498
0.0197783
0.0178445
0.0159979
0.0149977
0.0145948
0.0150315
0.0167833
0.0188617
0.0225135
0.0219741
0.020567
0.0187862
0.0168134
0.0154546
0.0148252
0.0150257
0.0157871
0.0185847
0.0225849
0.0225039
0.0213361
0.0200388
0.0186719
0.017019
0.0161176
0.0164947
0.0173845
0.0193993
0.0204792
0.0208492
0.0201888
0.0199003
0.019396
0.0189479
0.0183508
0.0179447
0.0174759
0.0172026
0.0191978
0.0192055
0.0183463
0.0179561
0.0173226
0.0170435
0.0167905
0.0166529
0.0164495
0.0162391
0.0178701
0.0174382
0.0164283
0.0159851
0.0157048
0.0156102
0.0156929
0.0158914
0.0159779
0.015945
0.0171761
0.0162468
0.0151718
0.0147
0.0144874
0.014475
0.015024
0.015568
0.0161109
0.0163645
0.0171767
0.0156328
0.0144672
0.0138977
0.0136633
0.0136771
0.0144584
0.0154461
0.0164529
0.0169066
0.0174703
0.015828
0.0144754
0.013542
0.0131409
0.01308
0.0135774
0.0149669
0.0165096
0.0171839
0.0182296
0.0164382
0.0148143
0.0137899
0.013178
0.0129707
0.0131823
0.0140688
0.0157004
0.0171782
0.019318
0.0173087
0.0156456
0.0145555
0.0139281
0.0135146
0.0135607
0.0139164
0.0150636
0.0170883
0.0200901
0.0183529
0.0169182
0.016002
0.0156747
0.0151168
0.0149068
0.0151455
0.0157836
0.0174873
0.0207781
0.0191741
0.0180568
0.0179085
0.0180578
0.0170622
0.0167073
0.0169585
0.0174401
0.0183683
0.0200352
0.0205704
0.020665
0.0206389
0.0204424
0.0201817
0.0198524
0.0194337
0.0190337
0.0187005
0.0182545
0.0185431
0.0186026
0.0185429
0.018438
0.0182779
0.0180316
0.0177052
0.0172648
0.016823
0.0170874
0.0169616
0.0167445
0.0166334
0.0165865
0.0165879
0.0166034
0.0165557
0.0163757
0.0160916
0.0160708
0.0155042
0.0152214
0.0149617
0.0148549
0.0148781
0.0151689
0.0154678
0.0156833
0.015746
0.0157584
0.0147585
0.0142976
0.0139632
0.0138011
0.0137887
0.0141206
0.0147124
0.0154872
0.0159075
0.0159333
0.014831
0.0139545
0.0134485
0.0132108
0.0131722
0.0133969
0.0139338
0.0150002
0.0160495
0.0168837
0.015292
0.0141441
0.0134386
0.0130631
0.0130197
0.0131857
0.013648
0.0146074
0.0160964
0.0179331
0.016226
0.0146639
0.0137963
0.0134283
0.0134223
0.0135629
0.0139354
0.0146177
0.0161051
0.0183479
0.017047
0.0155281
0.0145493
0.0145486
0.0146454
0.0148398
0.0152112
0.0156898
0.0167377
0.0186919
0.0174828
0.016124
0.0159934
0.016452
0.0165062
0.016373
0.016491
0.0166646
0.0170582
0.0221773
0.0233748
0.0238306
0.0241572
0.0242346
0.0240866
0.0235906
0.0230021
0.0223724
0.0217558
0.0203549
0.0209369
0.0212079
0.0213696
0.0214064
0.0210685
0.0205644
0.019819
0.0191688
0.0184382
0.0195125
0.0197941
0.0199087
0.0199561
0.0198815
0.0196239
0.0192007
0.0186009
0.0179892
0.017209
0.0181381
0.0181794
0.0181609
0.0181125
0.0180262
0.017882
0.0176768
0.0174539
0.0170977
0.0164316
0.0170364
0.0167714
0.0165938
0.0163861
0.0162048
0.0160089
0.0158545
0.0157828
0.0157497
0.0157093
0.0164164
0.0159495
0.0155186
0.0152178
0.0149466
0.0146797
0.0144834
0.0144327
0.0144906
0.0150183
0.0169826
0.0159894
0.0151471
0.0145698
0.0141937
0.0139564
0.0138073
0.0138184
0.0138756
0.0144887
0.0177662
0.0166305
0.015344
0.014478
0.0139917
0.0137664
0.013708
0.013751
0.0138776
0.0144419
0.0180332
0.0174694
0.0159732
0.0147922
0.0143905
0.0142083
0.0142447
0.0143708
0.0146455
0.0155871
0.0181018
0.0177175
0.0164743
0.0154169
0.0153814
0.015293
0.0151708
0.0152212
0.0153622
0.0161582
0.0190667
0.0188246
0.0170664
0.0161522
0.0157277
0.0156417
0.0162951
0.0180851
0.0223229
0.0249675
0.0212871
0.0201187
0.0190688
0.0184171
0.0182096
0.0190265
0.0210411
0.0225617
0.0229951
0.0226
0.022074
0.0218769
0.0214293
0.0212616
0.0214827
0.0220072
0.0222234
0.0222452
0.0209012
0.017766
0.0221776
0.0222636
0.0220877
0.0220181
0.0219989
0.0219879
0.0217741
0.0202959
0.0173472
0.0160274
0.0215827
0.0221006
0.0220559
0.0219025
0.0217759
0.0214009
0.0201791
0.0177886
0.0161581
0.0153755
0.0202811
0.0213171
0.0214958
0.0213808
0.0209116
0.0200204
0.0184799
0.0165576
0.0156162
0.0152753
0.0196429
0.0202206
0.0205259
0.0204961
0.0200682
0.0190786
0.0174795
0.0157426
0.0149829
0.0149336
0.0195754
0.0193069
0.0195632
0.0195742
0.0193756
0.0186695
0.0174162
0.0158288
0.0148226
0.0147525
0.0197741
0.0190936
0.0187469
0.0185989
0.0184435
0.0181282
0.0174917
0.0161641
0.0150814
0.0152538
0.0189454
0.0193621
0.0182238
0.0177858
0.0178247
0.0177393
0.0175027
0.0168694
0.0157857
0.0159471
0.0261647
0.0258907
0.0241221
0.0225478
0.0218423
0.0224298
0.0222369
0.0208879
0.0195975
0.0176338
0.0246066
0.0231705
0.0219136
0.0208289
0.0204223
0.020653
0.0215549
0.0216988
0.0212938
0.020302
0.0229974
0.0221149
0.0211491
0.0202744
0.0200373
0.0202558
0.0209106
0.021547
0.0212167
0.020303
0.0217203
0.0212986
0.0203424
0.0197247
0.0197142
0.0200318
0.0206653
0.020958
0.0206953
0.0198082
0.0212765
0.0209217
0.0199452
0.0194935
0.01952
0.0198975
0.0200732
0.0200615
0.019606
0.0191674
0.0211244
0.020367
0.0193939
0.0191889
0.019299
0.019437
0.0193741
0.0193911
0.0190368
0.0187924
0.0209857
0.0199736
0.0191195
0.0189044
0.0189637
0.0189081
0.0188115
0.0187645
0.0185622
0.0184456
0.0204968
0.0198199
0.0189682
0.0185916
0.018584
0.018476
0.0183628
0.0183455
0.0181078
0.0177564
0.0197493
0.019829
0.0189061
0.0182753
0.0180795
0.017975
0.0178519
0.0178744
0.0176546
0.0177425
0.01864
0.019335
0.0188312
0.0181019
0.0177953
0.0176955
0.0176726
0.0178115
0.0177501
0.0179488
0.0282262
0.0273163
0.026207
0.0242572
0.0220303
0.02055
0.0198906
0.0198833
0.019944
0.0200577
0.0252528
0.0239198
0.0226688
0.021108
0.0196581
0.0186133
0.0182766
0.0183034
0.0185364
0.0186661
0.0231759
0.0224873
0.021356
0.0198871
0.0186266
0.0176605
0.0171721
0.0172671
0.0176204
0.0179465
0.0223433
0.0217815
0.0202738
0.0186339
0.0173599
0.0166191
0.0165677
0.0168176
0.0173181
0.0177704
0.0219811
0.0212172
0.0192539
0.0177554
0.0167269
0.0162496
0.0164008
0.0167667
0.0172713
0.0178315
0.021746
0.0204615
0.0185969
0.0172334
0.0163693
0.0161549
0.0163913
0.0168401
0.0173352
0.0178494
0.0212634
0.0200526
0.0183321
0.0169939
0.0162478
0.0161438
0.0164581
0.0168952
0.0173463
0.0177507
0.0208058
0.0198752
0.0182569
0.0169141
0.0162428
0.0161961
0.0165596
0.0170455
0.0173834
0.0176392
0.0202947
0.0197462
0.0182579
0.0170469
0.0164944
0.0164364
0.0168076
0.0173427
0.017737
0.0182456
0.0197876
0.0193064
0.0180892
0.0172385
0.0169142
0.0170183
0.0173839
0.0178885
0.0182834
0.0184437
0.0231531
0.0215853
0.0198381
0.0186028
0.0177449
0.0169358
0.0164274
0.0165057
0.0169667
0.0173975
0.023354
0.0216552
0.0194279
0.0177637
0.0165868
0.0158389
0.0155372
0.0156011
0.0159462
0.0161451
0.0227144
0.0207345
0.018366
0.0165861
0.0153996
0.0147812
0.0146658
0.0147755
0.0151316
0.0153852
0.0224415
0.0202965
0.0177231
0.0157026
0.0146205
0.0141457
0.0141068
0.0142507
0.0146463
0.015072
0.0219418
0.0194143
0.0169062
0.0151297
0.0142565
0.0138873
0.0138867
0.0140626
0.0144539
0.0150113
0.0214788
0.0189511
0.016539
0.0148982
0.0141342
0.013834
0.0138522
0.0140654
0.0144529
0.0150817
0.020892
0.0184799
0.0163724
0.0148446
0.0142142
0.0140519
0.0140506
0.0141886
0.0145497
0.0152608
0.0204308
0.0182193
0.0163312
0.0150821
0.0146991
0.01464
0.0145747
0.0145339
0.014808
0.0155334
0.0200987
0.0179206
0.0163819
0.0154972
0.0153073
0.0155293
0.015496
0.0154208
0.0156288
0.0161609
0.0198686
0.0176481
0.0163948
0.0158643
0.0158979
0.0164278
0.0165581
0.0164827
0.0163062
0.016344
0.0221731
0.0199455
0.018283
0.0169928
0.0161687
0.0153837
0.0148366
0.0151018
0.0159598
0.0171691
0.0227389
0.0202612
0.0182193
0.0165869
0.0155449
0.0148184
0.0143566
0.0144135
0.0148226
0.0151112
0.0226214
0.0198117
0.0175595
0.0159052
0.0149458
0.014321
0.0139453
0.0139427
0.0141182
0.0143624
0.0222876
0.019579
0.0172682
0.0155633
0.0146382
0.0140862
0.0137514
0.0136307
0.0137199
0.0139603
0.0219239
0.0190294
0.0168627
0.0153078
0.0144942
0.014001
0.0136951
0.0135368
0.0135853
0.0138568
0.0214414
0.018722
0.0166599
0.0152182
0.014475
0.0140678
0.0137887
0.0136029
0.013642
0.0140083
0.0209923
0.0181753
0.0164263
0.0152145
0.0147504
0.0144656
0.0141315
0.0138621
0.013844
0.0142306
0.020451
0.0178259
0.0163122
0.0154427
0.0152525
0.0151329
0.0147861
0.0144126
0.014281
0.0144377
0.0200627
0.0173677
0.0161514
0.0156581
0.0158071
0.0158735
0.0156864
0.015381
0.0153187
0.0155647
0.019774
0.0169844
0.015963
0.0157622
0.0161844
0.0163436
0.0162947
0.0160751
0.0159452
0.0156005
0.024013
0.022602
0.0212889
0.0201249
0.019349
0.0186681
0.0183489
0.0180938
0.0178683
0.0169278
0.0247371
0.0232462
0.0215966
0.0201177
0.0192042
0.0185353
0.0180421
0.0177612
0.0171404
0.0171123
0.0249212
0.0235418
0.0219991
0.0204117
0.0192605
0.0184918
0.0178423
0.0172173
0.0166856
0.0157102
0.0249351
0.0236827
0.0224897
0.0209735
0.0197593
0.018649
0.0177285
0.0168988
0.0160272
0.0148016
0.0245999
0.0237173
0.0227556
0.0214167
0.0201602
0.0189146
0.0176791
0.0167478
0.0157343
0.0142714
0.0242033
0.0235241
0.0229093
0.0219477
0.0206821
0.0193438
0.0178891
0.0167279
0.0156528
0.0141666
0.0237726
0.0229564
0.0229223
0.0222056
0.0212127
0.0199472
0.0184106
0.0171314
0.0161246
0.0146831
0.0235907
0.0220899
0.0224342
0.0223199
0.0215189
0.020606
0.01903
0.0175811
0.0167089
0.0157585
0.0235769
0.0208885
0.0214991
0.022234
0.0216411
0.0211068
0.0201048
0.0182543
0.0171413
0.0163643
0.0236498
0.0199682
0.0200453
0.0215465
0.0216111
0.0212882
0.0209104
0.0201686
0.0187563
0.0178132
0.0235757
0.021706
0.0207691
0.0201142
0.0194692
0.0188017
0.0180123
0.0171954
0.0169781
0.0172541
0.0233812
0.0219864
0.0209758
0.0202509
0.0194708
0.0186665
0.0177302
0.0168901
0.0166398
0.0168238
0.0233707
0.0220125
0.0210044
0.0203041
0.0194911
0.0186376
0.0176292
0.0167471
0.0163706
0.0162677
0.0234529
0.0218572
0.0208708
0.0203255
0.0195774
0.0186606
0.0175789
0.0165824
0.0160095
0.0157055
0.0233487
0.0215873
0.0206538
0.0202614
0.0196915
0.0188092
0.0175655
0.0165003
0.0158327
0.0152496
0.0228916
0.0212317
0.0203747
0.020205
0.019865
0.0190518
0.0176751
0.0164682
0.015753
0.0149852
0.0226495
0.0207433
0.0200216
0.0200361
0.0199696
0.0193458
0.0178915
0.016509
0.0158032
0.0151046
0.022287
0.0202743
0.0196115
0.0198171
0.0199872
0.0194874
0.0182072
0.0167191
0.0161034
0.0156639
0.0221349
0.0198519
0.0190931
0.0194683
0.0198871
0.0195215
0.0183473
0.0168847
0.0162221
0.0155407
0.0220944
0.0195608
0.0186352
0.0190788
0.0195225
0.0194016
0.018381
0.0170659
0.0161534
0.015176
0.0201985
0.0184119
0.0174919
0.0171428
0.0170497
0.0170797
0.0173679
0.0182578
0.0185337
0.0185858
0.0198914
0.0188563
0.0181445
0.0177866
0.0176755
0.0176804
0.0179506
0.0186131
0.0189375
0.0198288
0.0209197
0.0195648
0.0189295
0.0184633
0.0182848
0.0182754
0.0186837
0.0194613
0.0202062
0.0208459
0.0220973
0.0205583
0.0196515
0.0191697
0.018989
0.0191906
0.0197477
0.0202641
0.0204437
0.020275
0.0229301
0.0214896
0.0204227
0.0198917
0.0196801
0.019847
0.0201749
0.0202812
0.0201575
0.0183663
0.0233596
0.0224305
0.0212113
0.0205548
0.0202385
0.020158
0.0201728
0.0201196
0.0193349
0.0175391
0.0235684
0.0230614
0.02206
0.021282
0.0206174
0.0202752
0.0200894
0.0196707
0.0185957
0.0173059
0.0234963
0.0233712
0.0227055
0.0218323
0.0211545
0.0204116
0.0198488
0.0192793
0.0181239
0.0168468
0.0234595
0.0234135
0.0230088
0.0223319
0.0216792
0.0206933
0.0199006
0.0189093
0.0175562
0.0168154
0.0234565
0.0235453
0.0230802
0.0224516
0.0220297
0.0212829
0.0202824
0.019052
0.0176569
0.0173184
0.0154077
0.0154098
0.0144676
0.0140065
0.013705
0.0139843
0.0147603
0.0156656
0.0163888
0.0168694
0.0161962
0.0153055
0.0144466
0.0141684
0.0140966
0.0145542
0.0153522
0.0160682
0.0169336
0.0181451
0.0168424
0.0155251
0.014884
0.0147019
0.014692
0.0151664
0.0158049
0.0168462
0.0178331
0.0182291
0.0174877
0.0162992
0.0156689
0.0154546
0.0154622
0.0157539
0.0167744
0.0176943
0.0180075
0.0175936
0.0178995
0.0171932
0.0166831
0.0164933
0.0164415
0.0170637
0.0178407
0.0180584
0.017931
0.0165073
0.018348
0.0178745
0.0175975
0.0174986
0.0176595
0.0179558
0.0180796
0.0181443
0.0177041
0.015616
0.0184971
0.0183631
0.0181722
0.0182331
0.0183154
0.0183831
0.018433
0.0181349
0.0172068
0.015367
0.018614
0.0187788
0.0187793
0.0188637
0.0188528
0.0187789
0.0185964
0.0181704
0.0171232
0.0152915
0.0186075
0.0194262
0.0193994
0.0194032
0.0193636
0.0190617
0.0188403
0.0183206
0.0172256
0.0153413
0.0189427
0.019716
0.0197213
0.0199102
0.0199027
0.0196508
0.0194016
0.0188108
0.0174987
0.0156205
0.0109166
0.0108779
0.0115623
0.0133075
0.0139552
0.0148881
0.0156126
0.0141777
0.0114956
0.0104175
0.0108074
0.0110404
0.0120641
0.013546
0.0139428
0.0150001
0.0152527
0.0140038
0.0126627
0.0110864
0.0123083
0.0127752
0.0138132
0.0136463
0.0139033
0.0147848
0.0148612
0.0138453
0.0121399
0.0111237
0.012326
0.0139842
0.0136775
0.0134788
0.0137544
0.0141645
0.0138978
0.0125025
0.0119735
0.011143
0.0117715
0.0131689
0.012812
0.0128279
0.0127548
0.012555
0.0121535
0.0116823
0.0119352
0.0111431
0.011598
0.0123702
0.0119206
0.0117774
0.0118112
0.0116413
0.0116528
0.0117829
0.0123766
0.0110764
0.0114077
0.0130425
0.0126174
0.0124162
0.0121888
0.012167
0.0119589
0.0119974
0.0116291
0.0109763
0.0111963
0.0124269
0.0125689
0.0126073
0.0122603
0.0121185
0.0119034
0.0119317
0.0112335
0.010949
0.0108813
0.0123725
0.0121949
0.0120645
0.0121615
0.0122714
0.0122646
0.0119369
0.0112682
0.0110653
0.010849
0.0120027
0.0119249
0.0117297
0.0118723
0.0124099
0.0123684
0.0118374
0.0111758
0.0111878
0.00923424
0.00952699
0.00961886
0.0096874
0.00952192
0.00899837
0.00827496
0.00799973
0.00792293
0.00791496
0.00930666
0.00952457
0.00958393
0.0094949
0.0091434
0.00846748
0.00808684
0.00799394
0.00803238
0.00785003
0.00935028
0.00949847
0.00951682
0.00931435
0.00884057
0.008244
0.00801591
0.00796539
0.00785345
0.00784458
0.00935203
0.00943785
0.00936937
0.00912484
0.00869523
0.00824983
0.00802709
0.00795689
0.00790918
0.00794523
0.00932931
0.00936412
0.00927497
0.00904881
0.00870843
0.00831708
0.00813526
0.00802636
0.00805047
0.00809068
0.00927851
0.00928477
0.00913502
0.0089594
0.00874738
0.00845668
0.00833081
0.00826668
0.00824796
0.00814371
0.00918557
0.00915697
0.00903634
0.00887416
0.00874096
0.0086284
0.00848453
0.00842316
0.00828131
0.00797801
0.00909602
0.0090615
0.00882692
0.0081912
0.00826146
0.00841113
0.0083952
0.00834628
0.0079689
0.00785616
0.00901665
0.00861599
0.00799975
0.00790088
0.00789421
0.00803688
0.00812541
0.00795986
0.00788066
0.0078484
0.00881023
0.00837157
0.00791744
0.00795639
0.00790679
0.00802927
0.00797129
0.00774278
0.00766123
0.0075422
0.00984093
0.0100388
0.0101125
0.0101829
0.0101954
0.0101874
0.0100416
0.00961609
0.00884062
0.00840145
0.0097977
0.00989772
0.009918
0.00992493
0.0098638
0.00964379
0.00908996
0.00856536
0.00821651
0.00808936
0.00964076
0.00964583
0.00960684
0.00946781
0.00907845
0.00861391
0.00823731
0.00796786
0.00785557
0.00783892
0.00931255
0.00920309
0.00889365
0.0085165
0.00821909
0.00794024
0.00772205
0.00761942
0.00758772
0.00770533
0.00855537
0.00831884
0.00800603
0.00783896
0.00760792
0.00749502
0.00740227
0.00736519
0.00739507
0.00747491
0.00784318
0.00766518
0.0074588
0.00734125
0.00721454
0.00717131
0.00712896
0.00715118
0.00722665
0.00728199
0.00736686
0.00717908
0.00700357
0.00689948
0.00684817
0.00684351
0.00690007
0.00700658
0.00707765
0.00705094
0.00702857
0.00689822
0.00679513
0.00675754
0.00674493
0.00671891
0.00679829
0.00690954
0.00692721
0.00693671
0.00692816
0.00684254
0.00679853
0.0068088
0.0068146
0.00674467
0.006725
0.00683337
0.00686258
0.00683995
0.0070414
0.00685592
0.00680983
0.00685377
0.00684845
0.00675661
0.00672185
0.00680807
0.00681038
0.00654624
0.00777741
0.00757535
0.00751193
0.00747424
0.00747242
0.00756357
0.00770691
0.00782803
0.00793855
0.00811177
0.00774499
0.00753285
0.00740116
0.00735873
0.00738993
0.00751088
0.00760204
0.00773608
0.00793573
0.00827489
0.00774329
0.00753286
0.00739314
0.00730249
0.00733092
0.00742381
0.00753729
0.00770691
0.00794436
0.00833494
0.00776267
0.00753223
0.00743244
0.00734999
0.00731723
0.0073738
0.00750973
0.00768437
0.00787176
0.00810286
0.00785164
0.00760312
0.00744471
0.00735356
0.0072891
0.00732214
0.00744132
0.00758365
0.00768172
0.00768141
0.00787175
0.00766181
0.00751391
0.00738458
0.00728698
0.00726365
0.00729867
0.00737512
0.00736214
0.00720611
0.00785206
0.00767977
0.00752688
0.00741317
0.00728053
0.00719416
0.00712943
0.00710446
0.00701717
0.00686212
0.00770323
0.00763445
0.00750673
0.00738519
0.00727702
0.0071192
0.00700595
0.00687
0.00677527
0.0067005
0.00755904
0.00752212
0.00744486
0.00734311
0.0072453
0.00710974
0.00692884
0.00675203
0.00666953
0.00663961
0.00728302
0.00729814
0.00728617
0.0072436
0.00718001
0.00708623
0.00688822
0.00670447
0.00662316
0.0066153
0.0122062
0.0123961
0.012654
0.0128977
0.0130599
0.0133491
0.0137654
0.0145076
0.016041
0.0158114
0.0123642
0.0124991
0.0127224
0.0130303
0.0133039
0.0136338
0.0139583
0.0147174
0.0161804
0.0161669
0.012781
0.0127182
0.0128234
0.0130886
0.013433
0.0137838
0.014222
0.0151166
0.0164254
0.0163504
0.0134285
0.0131899
0.0130474
0.0132016
0.0135815
0.0140798
0.0145654
0.0156034
0.0167146
0.0165017
0.0139632
0.0137446
0.0134938
0.0135856
0.0139693
0.0146011
0.0154735
0.0164375
0.016793
0.0164741
0.0150562
0.0147856
0.0145613
0.0146561
0.0150818
0.0157824
0.0165917
0.016934
0.0167046
0.0162548
0.016412
0.0160774
0.016103
0.0163103
0.016609
0.0169594
0.016931
0.0167192
0.0163554
0.0157327
0.016816
0.0167222
0.0168269
0.0168281
0.0167343
0.0166727
0.0165084
0.0161606
0.0156706
0.0151241
0.0157475
0.0158456
0.0160243
0.0160916
0.0160828
0.0159189
0.0156495
0.0153513
0.0149823
0.0145654
0.0142615
0.0146774
0.0150113
0.0152014
0.0152659
0.0151589
0.0149138
0.0146452
0.0143175
0.0138959
0.0117605
0.0120098
0.0121954
0.0123603
0.0124546
0.0125515
0.0127167
0.0129483
0.0133706
0.014249
0.0117989
0.0119251
0.0121795
0.0123535
0.0125822
0.0127136
0.0128802
0.0130688
0.013454
0.0143528
0.0120114
0.0120294
0.0121485
0.0123859
0.0126023
0.0128212
0.0130577
0.0133578
0.0137411
0.0146045
0.0124227
0.0123383
0.0123184
0.0124026
0.0126057
0.0128843
0.0131956
0.0136257
0.0140609
0.014934
0.0127419
0.0126857
0.0126069
0.0126081
0.0126867
0.0129595
0.0134265
0.0139523
0.0145748
0.0153235
0.013289
0.0132603
0.0131943
0.0131135
0.0131226
0.0133427
0.0138358
0.0144512
0.0150893
0.0154829
0.0143261
0.0142341
0.0140931
0.0140361
0.0140936
0.0143049
0.0147256
0.0151854
0.015485
0.0153927
0.0148566
0.0147937
0.0147383
0.0147678
0.0148947
0.0151255
0.0153535
0.0154286
0.0153205
0.0150617
0.0148023
0.0148107
0.0148924
0.0149965
0.0150851
0.0151181
0.0151312
0.0150565
0.0148182
0.0144909
0.0138699
0.0141232
0.0144441
0.0145912
0.0146282
0.0145837
0.0144712
0.0143065
0.014051
0.0138332
0.0117231
0.0119099
0.0121389
0.012294
0.0123978
0.0124217
0.0124545
0.0125084
0.012611
0.012887
0.0115856
0.0116551
0.0118636
0.0121109
0.0122577
0.0124162
0.012484
0.0125667
0.0126456
0.0129282
0.0116511
0.0116783
0.0117862
0.0120133
0.0122565
0.0124182
0.012558
0.0127546
0.0128519
0.0131675
0.0119049
0.0118911
0.0119145
0.0120213
0.0122244
0.0124311
0.0126142
0.012842
0.0130016
0.0133886
0.0121194
0.0121323
0.0121535
0.0121789
0.0122982
0.0124462
0.0126315
0.0129065
0.013204
0.013634
0.0123913
0.0124531
0.0125013
0.0125282
0.0125676
0.0126349
0.0127588
0.0130375
0.0134212
0.0137953
0.0129975
0.0130927
0.0130987
0.0130945
0.0130994
0.0131278
0.0132306
0.0134365
0.0137446
0.013967
0.013464
0.0134952
0.0134901
0.0134769
0.0134767
0.01353
0.0136718
0.0138248
0.01398
0.014148
0.0135307
0.0135264
0.0135423
0.0135737
0.0136126
0.0136468
0.0137368
0.0138612
0.0139083
0.013966
0.0132755
0.0132465
0.0133074
0.0133698
0.0134187
0.0134629
0.0135073
0.0135366
0.0134825
0.0135216
0.0118941
0.0120599
0.0123234
0.0124747
0.012569
0.0125668
0.0125376
0.012477
0.0124122
0.012405
0.0115675
0.01162
0.0118357
0.0120577
0.012204
0.0122768
0.0123891
0.0123999
0.0123741
0.012412
0.0114995
0.011521
0.0116247
0.0118508
0.0120693
0.0121838
0.0123111
0.0124129
0.0124437
0.0125936
0.0115815
0.0116126
0.0116861
0.0118451
0.0120362
0.0121933
0.012336
0.0124889
0.0125542
0.012721
0.0117449
0.0118168
0.0118913
0.0119741
0.012108
0.0122483
0.0123657
0.0125116
0.0126122
0.012822
0.0118914
0.0120225
0.0121507
0.0122545
0.012336
0.0124543
0.012522
0.0125757
0.0126741
0.0128793
0.0122169
0.0124176
0.0125434
0.0126177
0.0126605
0.0127196
0.0127505
0.012771
0.0128467
0.0129884
0.0125755
0.0127065
0.0127709
0.0127965
0.012811
0.0128115
0.0128303
0.0128828
0.0129707
0.0131134
0.0127378
0.0127803
0.0127892
0.0128015
0.0128095
0.0128142
0.0128308
0.0128888
0.0129414
0.0130463
0.0127928
0.0127372
0.0127183
0.0127131
0.0127039
0.0127045
0.0127078
0.0127522
0.0127602
0.0128476
0.0123225
0.0124578
0.0127764
0.0129257
0.0129828
0.0129341
0.0127989
0.0126124
0.0124346
0.0122355
0.0117128
0.0117446
0.011959
0.0121819
0.0123157
0.0123512
0.0123455
0.01231
0.0121934
0.012191
0.0114554
0.0114674
0.011602
0.0118476
0.0120131
0.0120888
0.0121298
0.0121803
0.0121789
0.0122398
0.0113784
0.0114336
0.0115714
0.0117537
0.0119378
0.01206
0.0121311
0.0122071
0.012249
0.0123412
0.0114365
0.0115532
0.0116908
0.0118447
0.0119998
0.0121359
0.0122037
0.0122773
0.0123245
0.0123913
0.0115398
0.0117142
0.0119051
0.0120806
0.012201
0.0123386
0.0123935
0.0124134
0.0124372
0.0124487
0.0117223
0.0119721
0.012167
0.0123151
0.012409
0.0124637
0.0124842
0.0124898
0.0124881
0.0124949
0.0119812
0.0121806
0.0123201
0.0124055
0.0124501
0.0124691
0.0124637
0.0124698
0.0124727
0.0125122
0.0121325
0.0122704
0.0123553
0.0124034
0.0124197
0.0124082
0.0123714
0.0123933
0.0124071
0.0124782
0.0124098
0.0123966
0.0124074
0.0124336
0.012429
0.0124003
0.0123156
0.012302
0.0122826
0.0123647
0.0131955
0.0131833
0.0134643
0.0136171
0.0135864
0.0134448
0.0132129
0.0128614
0.0124787
0.0121139
0.0121811
0.0120857
0.0122538
0.0124801
0.0125615
0.012534
0.0124325
0.0123212
0.0121405
0.01204
0.011605
0.0115685
0.0116821
0.0119086
0.0120349
0.0120485
0.0120316
0.0120019
0.0119284
0.0119334
0.0113205
0.0113502
0.0115086
0.0117231