/*--------------------------------*- C++ -*----------------------------------*\
  =========                 |
  \\      /  F ield         | OpenFOAM: The Open Source CFD Toolbox
   \\    /   O peration     | Website:  https://openfoam.org
    \\  /    A nd           | Version:  9
     \\/     M anipulation  |
\*---------------------------------------------------------------------------*/
FoamFile
{
    format      ascii;
    class       volScalarField;
    location    "80";
    object      H2.gas;
}
// * * * * * * * * * * * * * * * * * * * * * * * * * * * * * * * * * * * * * //

dimensions      [0 0 0 0 0 0 0];

internalField   nonuniform List<scalar> 
137980
(
0.0890858
0.0891894
0.0897912
0.0907615
0.0914836
0.0920543
0.092327
0.0923324
0.0921502
0.0924671
0.0883643
0.088633
0.0896713
0.0907321
0.0914485
0.0919609
0.0924136
0.0925669
0.0924622
0.0926269
0.0876931
0.0881165
0.089611
0.090607
0.0912077
0.0916538
0.0920645
0.0925364
0.0926724
0.0927381
0.0874323
0.0878958
0.0893727
0.0903597
0.0909564
0.0913565
0.0915682
0.0922334
0.092583
0.0926658
0.0874708
0.0878398
0.0890958
0.0900165
0.090548
0.0910438
0.0912358
0.0914699
0.092096
0.0923181
0.0876801
0.0878309
0.0886774
0.0896111
0.0900213
0.0906052
0.090904
0.0910175
0.0911573
0.0913164
0.0879188
0.0879541
0.0883023
0.0890966
0.0895809
0.0899046
0.0903239
0.0905487
0.0906777
0.0906959
0.0879375
0.0880468
0.0882218
0.0886535
0.0891025
0.0893728
0.0895627
0.0896895
0.0897228
0.0897595
0.0879564
0.0880192
0.0882368
0.0885494
0.0888941
0.0890497
0.0891456
0.0892155
0.0892325
0.0892313
0.0879593
0.0880842
0.0883643
0.0885819
0.0888
0.0889327
0.0890201
0.0890748
0.089089
0.0891991
0.0892509
0.089442
0.0901302
0.0908564
0.0914625
0.0919561
0.0921404
0.0919327
0.0918224
0.0920584
0.0887419
0.089144
0.0900801
0.0908475
0.0914262
0.0919142
0.0922435
0.0921374
0.0918962
0.0920959
0.0881458
0.0888467
0.090029
0.0907228
0.0911925
0.0916302
0.0921559
0.0922723
0.0920672
0.0921272
0.0878867
0.0885838
0.0898288
0.090492
0.0909655
0.0912968
0.0919488
0.0922409
0.0922551
0.0922107
0.0878179
0.0883515
0.0894759
0.0901511
0.0906025
0.0910521
0.0915162
0.0920862
0.0922299
0.0922218
0.0878888
0.0881282
0.0889295
0.0897553
0.0901502
0.0906977
0.0910382
0.0916874
0.0920763
0.0921667
0.0879603
0.0880376
0.0883534
0.0891475
0.0897295
0.0901306
0.0905601
0.0910376
0.0917058
0.091947
0.0879199
0.0880017
0.0881448
0.0885203
0.0891288
0.0894544
0.0897528
0.0900392
0.0905374
0.0911854
0.0879743
0.0879544
0.0880597
0.0882591
0.0886601
0.0890042
0.0891987
0.0893487
0.0894741
0.0897347
0.0879633
0.0880284
0.0881384
0.0882668
0.088474
0.0886881
0.0888612
0.0889964
0.0891169
0.0890952
0.08933
0.0896908
0.0902221
0.0907825
0.0912517
0.0916089
0.0917386
0.0914896
0.0914314
0.0917748
0.0889881
0.0895415
0.0901964
0.0907565
0.0911215
0.0916594
0.0917738
0.0915166
0.0914634
0.0917622
0.0886675
0.0893863
0.0901335
0.0906272
0.090904
0.0915249
0.0918114
0.0915606
0.0914804
0.0917409
0.0883998
0.0891089
0.0899538
0.0904202
0.0907856
0.0913963
0.091762
0.0917024
0.091507
0.0917183
0.0882038
0.0887597
0.0895904
0.0901082
0.0905629
0.0911849
0.091685
0.0917677
0.0915706
0.0917164
0.0880349
0.0883154
0.089015
0.0897998
0.0902063
0.0908585
0.0915189
0.091735
0.0917139
0.0917296
0.0879732
0.0880641
0.0883898
0.0892102
0.0898695
0.090383
0.0912409
0.0916355
0.0917104
0.0917419
0.0879385
0.087981
0.0881075
0.0885283
0.0892422
0.0897046
0.0904781
0.0913457
0.091614
0.0916997
0.0880892
0.0879631
0.0880076
0.0881805
0.0887007
0.0891343
0.0895402
0.0904356
0.0911633
0.0914264
0.0880216
0.088046
0.0880942
0.0881148
0.0883685
0.0887969
0.0890746
0.0893703
0.0897008
0.0897218
0.0894095
0.0898405
0.0901771
0.0904487
0.0907007
0.0911261
0.091143
0.0910376
0.0911231
0.0920948
0.0892272
0.0897149
0.0901122
0.0904031
0.0908664
0.0911666
0.0911539
0.0910851
0.0911891
0.0921641
0.088983
0.0895423
0.0900599
0.0903721
0.0908842
0.0911793
0.0911764
0.091099
0.0911998
0.0921594
0.0887185
0.0893089
0.089936
0.0902751
0.0908401
0.0912064
0.0912261
0.0911113
0.0911869
0.092109
0.0883802
0.0889458
0.0896596
0.0901272
0.0907158
0.0911889
0.0912788
0.09112
0.091147
0.0919781
0.088104
0.0884457
0.0891816
0.0899325
0.0904737
0.0911333
0.0912793
0.0911472
0.0911235
0.091755
0.0880001
0.0881104
0.0885237
0.089452
0.0902488
0.0909954
0.091233
0.0912249
0.0911391
0.0915099
0.0879898
0.087988
0.0881464
0.0887147
0.0897034
0.0906704
0.0911254
0.0912245
0.0911924
0.091447
0.0882471
0.0880072
0.0880155
0.0882693
0.0890387
0.0899795
0.0908469
0.0911246
0.0911614
0.0913825
0.0882208
0.0881008
0.0880487
0.0881218
0.0885673
0.0894603
0.090318
0.0906575
0.0907389
0.0905755
0.0895043
0.0898484
0.0900382
0.0902419
0.090542
0.0906387
0.0905671
0.0907375
0.0915685
0.092945
0.0893987
0.0898105
0.0901208
0.0904769
0.0906916
0.0907326
0.090724
0.0909328
0.0919739
0.0930149
0.0892236
0.0897374
0.0901658
0.0905845
0.0907643
0.090783
0.0907839
0.0911243
0.0923898
0.0932565
0.0890359
0.0896059
0.0901367
0.090607
0.0908215
0.0908703
0.0909164
0.0914432
0.0927576
0.0934483
0.0887184
0.0893652
0.0899992
0.0905439
0.0908203
0.0909248
0.0909835
0.0914842
0.0927253
0.0934126
0.0883313
0.0888986
0.0897594
0.0904124
0.0907846
0.090934
0.0909841
0.0914315
0.0925526
0.093244
0.0881038
0.0884114
0.0891853
0.0902152
0.0907008
0.0909265
0.0910016
0.0913034
0.0920984
0.0928581
0.0880491
0.0881162
0.0885933
0.0897108
0.0905224
0.0908632
0.0910077
0.0911766
0.0915379
0.0920479
0.0881844
0.0880792
0.0882178
0.0889477
0.0901223
0.0906316
0.0909655
0.0911088
0.0913044
0.09167
0.0882346
0.0881046
0.0881078
0.0884696
0.0895711
0.0903581
0.0907631
0.0909162
0.090959
0.0911267
0.0897657
0.0898226
0.0898779
0.089993
0.0901441
0.0902624
0.0904977
0.0910896
0.0925977
0.0928659
0.0898931
0.0900174
0.0901445
0.0902972
0.0903958
0.0904399
0.0908143
0.0919256
0.0928163
0.0929866
0.0900087
0.0902553
0.0904139
0.0904938
0.0905233
0.0907367
0.0915066
0.0926572
0.0930892
0.0932344
0.0900343
0.0903386
0.0905174
0.0906194
0.0907551
0.0911801
0.0922351
0.093022
0.09329
0.0934073
0.0899769
0.0903491
0.0905883
0.0907131
0.091015
0.0916632
0.0927278
0.0932158
0.0934151
0.0935066
0.0897983
0.0902862
0.0906659
0.0909326
0.0913218
0.0920425
0.0929031
0.0932971
0.0934877
0.0935475
0.0893863
0.0901031
0.0906145
0.0909601
0.091387
0.0920854
0.0928815
0.0932656
0.0934673
0.0934786
0.0888252
0.0897639
0.0903827
0.0909058
0.0913409
0.0920359
0.0927794
0.0931428
0.0933438
0.0931167
0.0885359
0.0891517
0.0900035
0.0907131
0.0911742
0.091912
0.0925236
0.0928404
0.0930676
0.0928433
0.0883737
0.0886611
0.0893637
0.0902821
0.0909468
0.0916478
0.0921987
0.0923988
0.0924439
0.0925526
0.0896592
0.0897932
0.0899539
0.0901844
0.0903834
0.0908192
0.0919688
0.0923648
0.0923481
0.0923252
0.0898816
0.0900081
0.090178
0.090354
0.0906717
0.0915886
0.0922708
0.0924287
0.0924709
0.092498
0.0901662
0.0902394
0.0903589
0.0906155
0.0912765
0.0921338
0.0924542
0.0925579
0.0926112
0.0926684
0.0902754
0.0903551
0.0905378
0.0909876
0.0918017
0.0923843
0.0926106
0.0927382
0.0929451
0.0930449
0.0903322
0.0905137
0.0908063
0.0913656
0.0921545
0.0926108
0.0928414
0.0931012
0.0932229
0.093269
0.0903535
0.09067
0.0910495
0.0916673
0.0923905
0.0928649
0.0931239
0.0932601
0.0932949
0.0932397
0.0903301
0.0907355
0.0912008
0.0918889
0.0926856
0.0930642
0.093222
0.0932582
0.0932293
0.0927572
0.090257
0.0907197
0.0912992
0.0920978
0.0928096
0.0931125
0.0932214
0.0932362
0.0930708
0.0921963
0.0900335
0.0906002
0.0912506
0.092085
0.0927904
0.0930938
0.093199
0.0931782
0.0929404
0.0922362
0.0896868
0.0905897
0.0912277
0.0920279
0.0927081
0.0930107
0.0931361
0.0931157
0.0929254
0.0925372
0.0913595
0.0915712
0.0916461
0.0916768
0.0916819
0.0916448
0.0915962
0.0915603
0.0915208
0.0914952
0.0912715
0.0915234
0.0916309
0.0917305
0.0917972
0.0918849
0.0919401
0.0919585
0.0919131
0.0918358
0.0912761
0.0915483
0.09175
0.0920259
0.0922754
0.0923871
0.0924309
0.0924448
0.0924282
0.0923558
0.0913018
0.0916397
0.0920814
0.0924442
0.0925764
0.0926195
0.09263
0.0926238
0.0925767
0.0924864
0.0913666
0.0918116
0.0923826
0.0926162
0.0926763
0.0926807
0.0926293
0.0924709
0.0922418
0.0921689
0.0913666
0.0918788
0.0924739
0.0926732
0.0927162
0.0927146
0.0925223
0.0919828
0.0914647
0.0911386
0.0913334
0.0919571
0.0925301
0.0927264
0.0927905
0.0928018
0.0926021
0.0921273
0.0915388
0.0905849
0.0912541
0.0919282
0.0925256
0.092765
0.0928842
0.0929384
0.092831
0.0925887
0.0922135
0.0910009
0.0910369
0.0918312
0.0924811
0.0927514
0.0928891
0.0929886
0.0930008
0.0929439
0.0927307
0.0921047
0.0911218
0.0918976
0.0924706
0.0927014
0.0928515
0.0929475
0.0929889
0.092934
0.0927473
0.0925678
0.0915145
0.0914279
0.0914168
0.0914354
0.0914561
0.0914584
0.0913982
0.0913072
0.0911998
0.0910613
0.0920097
0.0919187
0.0919103
0.0918973
0.0918133
0.0917071
0.091635
0.0915463
0.0914583
0.0913954
0.0922349
0.0921819
0.092138
0.0920308
0.0919114
0.0917004
0.0914887
0.0913882
0.0913531
0.0913614
0.0923036
0.0922852
0.092213
0.0921025
0.091851
0.0915422
0.091316
0.0909773
0.0906557
0.0905091
0.0923287
0.0923513
0.0923497
0.0922668
0.0920722
0.0918234
0.0914926
0.0910177
0.0905511
0.0900882
0.0923043
0.0923852
0.0924696
0.0924856
0.092417
0.0922558
0.091979
0.0916008
0.0909438
0.0900678
0.0922098
0.0923685
0.0925523
0.092654
0.092676
0.0926051
0.0924749
0.0921834
0.0917602
0.0908053
0.0919774
0.0923081
0.0925387
0.0927175
0.0927928
0.0927533
0.0926524
0.0924086
0.0921355
0.0915019
0.0915039
0.0921241
0.0924654
0.0926926
0.092795
0.0927645
0.0926623
0.0924329
0.092228
0.0917704
0.0916634
0.0920999
0.0924328
0.0926249
0.0926234
0.0925844
0.0922214
0.0918262
0.0916089
0.0915214
0.0913589
0.0910936
0.0910184
0.0909356
0.0908925
0.0908252
0.0907808
0.0907133
0.0906795
0.0906342
0.0920257
0.0916427
0.0914751
0.0912552
0.0911255
0.0909533
0.0908568
0.0907213
0.090657
0.090578
0.0923087
0.0920512
0.0918758
0.0916096
0.0913997
0.0911735
0.0909734
0.090747
0.0905846
0.0904376
0.0924548
0.0922824
0.0921542
0.0919169
0.0916764
0.0914272
0.0911096
0.0907623
0.0904669
0.0901623
0.0925769
0.0924696
0.0923836
0.0922871
0.0921187
0.0918821
0.0915901
0.0912059
0.0907233
0.0902391
0.0926045
0.0925789
0.0925219
0.0924824
0.0924368
0.0923269
0.0921277
0.0918599
0.0914089
0.0906198
0.0924526
0.0925468
0.0925729
0.0926047
0.0926096
0.092559
0.0924416
0.0922149
0.0918732
0.0913391
0.0920467
0.0924282
0.0925351
0.0925992
0.0926398
0.0926135
0.0925254
0.092318
0.0919806
0.0915658
0.0914663
0.0921253
0.0924137
0.0925407
0.0925746
0.0925525
0.0924596
0.092214
0.0917532
0.0915485
0.0915913
0.0921398
0.0923518
0.0924616
0.0924445
0.0924041
0.0921479
0.0914515
0.090823
0.090896
0.0912351
0.0911924
0.0912117
0.0912803
0.0913404
0.0913569
0.0912986
0.0911923
0.0911148
0.0910586
0.091329
0.0910709
0.0909761
0.0908556
0.0907971
0.0907118
0.0906623
0.0905858
0.0905403
0.0904915
0.0918556
0.0914659
0.0913062
0.0911105
0.0910107
0.0908758
0.0907976
0.0906772
0.0906024
0.0905158
0.0922643
0.0919062
0.0917231
0.091441
0.091283
0.0910933
0.0909237
0.0907864
0.0907248
0.0907119
0.0924699
0.0922334
0.0920915
0.0918828
0.0916605
0.0914403
0.0912357
0.091116
0.0910757
0.0910888
0.0925948
0.0924807
0.0923625
0.0922584
0.0921289
0.0919739
0.0917951
0.09163
0.0915249
0.0914989
0.092668
0.0926156
0.0925435
0.0924755
0.0924288
0.0923922
0.0923065
0.0921558
0.0919467
0.0917995
0.0924566
0.0925982
0.0925953
0.0925749
0.0925615
0.0925306
0.0924675
0.0923457
0.0921291
0.0919137
0.0918237
0.0922672
0.0925091
0.092546
0.0925408
0.0925189
0.0924618
0.0923435
0.0920921
0.091894
0.091505
0.0919746
0.0923808
0.0924669
0.092453
0.0924213
0.0922548
0.091896
0.0914425
0.0914927
0.0933499
0.0934579
0.0936882
0.0938714
0.0940423
0.0942599
0.0944919
0.0945966
0.0945059
0.0934396
0.0929042
0.0933115
0.0935189
0.0938665
0.0940328
0.0942095
0.0942691
0.0940033
0.0929236
0.0919716
0.0927089
0.0930105
0.0933868
0.0935973
0.0937308
0.0937484
0.0933143
0.0921716
0.0914697
0.0912106
0.0925923
0.0926732
0.0928806
0.0929518
0.092949
0.0925034
0.0917655
0.0913902
0.0912285
0.0911564
0.0925549
0.0924637
0.092395
0.092283
0.0920449
0.0917157
0.0914688
0.0913666
0.0912775
0.0911952
0.092649
0.0924559
0.0923741
0.0922341
0.0920008
0.0917432
0.0915585
0.0914712
0.0914144
0.0913154
0.0928038
0.0925825
0.0924325
0.0923031
0.0920924
0.0918979
0.0918116
0.0917206
0.0916719
0.0915952
0.0927841
0.0928105
0.0926113
0.0924884
0.0923217
0.0921709
0.0920744
0.0920411
0.0919602
0.0918709
0.0923099
0.092873
0.0927103
0.0926545
0.092584
0.0924999
0.0923755
0.09225
0.0921512
0.0920698
0.0921898
0.0927555
0.0927538
0.0926713
0.0926384
0.0926067
0.0925479
0.0924149
0.0922248
0.0916674
0.0925844
0.0923898
0.0924448
0.0926124
0.0928085
0.0928086
0.0931308
0.0938184
0.0940835
0.0944996
0.0922266
0.0922711
0.0923988
0.0926986
0.0929653
0.0929608
0.0929052
0.0931324
0.093484
0.0939922
0.0921605
0.0922408
0.0924586
0.0928831
0.0930798
0.0930666
0.0929234
0.0929022
0.0931127
0.0935652
0.0921099
0.09228
0.092716
0.0929947
0.093084
0.0930154
0.0927505
0.0926677
0.0928631
0.0932839
0.0921092
0.0925407
0.092896
0.093009
0.0930117
0.0928598
0.0925489
0.0924797
0.0926916
0.0930577
0.0921738
0.0927248
0.0929613
0.092969
0.0929141
0.0926837
0.0923796
0.0923276
0.0925309
0.0926588
0.0922048
0.0927953
0.0929975
0.092962
0.0928842
0.0926771
0.0923738
0.0922677
0.092315
0.0924476
0.0921795
0.0928073
0.0930332
0.0930269
0.0928894
0.0927203
0.0924456
0.0923482
0.0923357
0.0923742
0.0918948
0.0925433
0.0930353
0.0930953
0.0929876
0.0928242
0.0926087
0.0924667
0.0924395
0.0924339
0.0917111
0.0922088
0.0929275
0.0930959
0.0930772
0.0929705
0.0928238
0.092639
0.0924846
0.092336
0.092395
0.0923378
0.0923575
0.0924219
0.0925921
0.0928746
0.0931035
0.0931011
0.0929978
0.0930473
0.092311
0.0923318
0.0924068
0.0926069
0.0930339
0.0932656
0.0933798
0.0934093
0.0933769
0.0932062
0.0923149
0.0924003
0.0926337
0.0931114
0.0933128
0.0933988
0.0934583
0.093504
0.0934991
0.0934424
0.0924066
0.0926188
0.0931093
0.0933376
0.093396
0.0934313
0.0934804
0.0935187
0.0935352
0.0935077
0.0924746
0.092974
0.0933059
0.0934009
0.0934054
0.0934091
0.0934451
0.0935145
0.093561
0.0934884
0.0926059
0.0931411
0.0933617
0.0934036
0.093387
0.0933763
0.0934235
0.0935266
0.093585
0.0934706
0.0927026
0.0931905
0.0933732
0.0934045
0.0933843
0.0933998
0.0934651
0.0935447
0.0935991
0.0935128
0.0927393
0.0931929
0.0933735
0.0934212
0.0934387
0.0934838
0.0934885
0.0935069
0.0935879
0.09361
0.0927173
0.0931548
0.0933507
0.0934296
0.0934777
0.0934842
0.0934469
0.0934731
0.0935395
0.0935464
0.0926457
0.0931408
0.0933233
0.0934302
0.0934799
0.0934863
0.0934581
0.0934458
0.0934857
0.0935652
0.0936892
0.0939123
0.0940154
0.0940196
0.0940118
0.0939757
0.0938061
0.0937164
0.0938204
0.0938704
0.093665
0.093918
0.0940326
0.094048
0.0940294
0.0939273
0.0936635
0.093453
0.0934495
0.0934071
0.0937714
0.0940388
0.0940863
0.0940782
0.0940318
0.0938045
0.093546
0.0933749
0.0933303
0.0932002
0.0938291
0.0940886
0.0941039
0.094066
0.0939539
0.0937207
0.0934986
0.0933354
0.0932661
0.0932034
0.093928
0.0941329
0.0940968
0.0940082
0.0938983
0.0937131
0.0935156
0.0933589
0.0932643
0.0932349
0.0939766
0.0941463
0.0940808
0.0939949
0.0938854
0.0937899
0.0935898
0.0934574
0.0933395
0.09333
0.0940113
0.0941516
0.0940825
0.094011
0.0939323
0.0938558
0.0936914
0.0935991
0.0935314
0.0935559
0.09402
0.0941701
0.0941237
0.0941004
0.0940668
0.0939997
0.0938944
0.0937373
0.0936689
0.0937164
0.0939813
0.0941912
0.0941643
0.0941598
0.0941591
0.0941127
0.0940524
0.0939186
0.0937721
0.0937504
0.0938325
0.0942016
0.0941992
0.0941943
0.0942066
0.0941746
0.0941448
0.094125
0.0941096
0.0941427
0.0940872
0.0944586
0.0945517
0.0944515
0.0942266
0.0940051
0.0937
0.0935494
0.0936633
0.093855
0.0938878
0.0943936
0.0944778
0.0943122
0.0941107
0.0938798
0.0936307
0.0933319
0.0933146
0.0932597
0.0938348
0.094382
0.0944508
0.0942477
0.0940569
0.0938421
0.0936005
0.0932555
0.093136
0.0929867
0.0938159
0.0943723
0.0944119
0.0942133
0.0940384
0.093862
0.0936052
0.0933416
0.0930804
0.0928433
0.0938118
0.0943687
0.0943857
0.0941994
0.0940413
0.0939559
0.0937586
0.0934486
0.0931037
0.0928388
0.0938142
0.0943604
0.0943652
0.0941975
0.0940944
0.0940232
0.0939214
0.0936371
0.0932169
0.0929073
0.093802
0.0943526
0.0943511
0.09422
0.0941503
0.0940824
0.0940056
0.0938291
0.0934057
0.0931576
0.0937061
0.0943305
0.094346
0.0942317
0.0941811
0.0941486
0.0941048
0.0939684
0.0936095
0.0933456
0.0935681
0.0943191
0.0943491
0.0942353
0.0941929
0.0941713
0.0941563
0.094107
0.0938827
0.0937784
0.0933267
0.0942941
0.094349
0.0942443
0.0942062
0.0941888
0.0941822
0.0941803
0.0941882
0.0942343
0.0942182
0.0943083
0.094242
0.0942168
0.0941909
0.0941552
0.0941115
0.0940534
0.0938503
0.0934103
0.0940606
0.0942565
0.0941953
0.0941496
0.0941209
0.0940612
0.0940063
0.0938963
0.0936448
0.0934252
0.0939811
0.0942377
0.0941363
0.0940936
0.0940669
0.0940116
0.0939202
0.0937304
0.0935195
0.0933658
0.0938127
0.0942217
0.0941119
0.0940685
0.0940474
0.0939924
0.0938717
0.0936644
0.0934754
0.0933576
0.093595
0.0942149
0.0940947
0.0940464
0.0940418
0.0939875
0.0938573
0.0936469
0.0934684
0.0934126
0.093163
0.0942115
0.0940906
0.0940327
0.0940417
0.0940008
0.0938754
0.0936716
0.0935449
0.0934907
0.0923998
0.0942059
0.0941003
0.0940027
0.0940386
0.0940194
0.0939391
0.0937527
0.0936038
0.0935595
0.0911089
0.0941878
0.0941578
0.093963
0.0940161
0.0940252
0.0939847
0.0938484
0.0936934
0.0936265
0.0896145
0.0941503
0.09424
0.0939431
0.0939859
0.0940185
0.0940129
0.093971
0.0938494
0.0937585
0.0889591
0.0940982
0.0942889
0.0939374
0.0939315
0.0939881
0.094014
0.0940177
0.093994
0.0939702
0.0907355
0.093425
0.0937299
0.0939057
0.0939385
0.0939382
0.0939617
0.0940064
0.0940583
0.0943829
0.0909709
0.09318
0.093657
0.0938325
0.0938804
0.0939128
0.0939577
0.0940037
0.0940964
0.094488
0.0903955
0.0931235
0.0936375
0.0938066
0.0938577
0.0939078
0.093953
0.0939836
0.0941055
0.0945415
0.0901891
0.0930825
0.0936314
0.0937928
0.0938482
0.0939131
0.0939596
0.0939758
0.0939655
0.0941998
0.090146
0.0930798
0.0936434
0.0937897
0.0938451
0.0939421
0.0939834
0.0939598
0.0939112
0.0938888
0.0906497
0.0931912
0.09368
0.093792
0.0938455
0.0939712
0.0939867
0.0939372
0.0938919
0.0938329
0.091105
0.0932566
0.093704
0.0938097
0.0938621
0.0939792
0.0939872
0.0939207
0.0938508
0.0937964
0.0915561
0.0932858
0.093746
0.0938416
0.0938886
0.093981
0.0939814
0.0939122
0.0938396
0.0938128
0.0916931
0.0932886
0.0937701
0.0938753
0.0939143
0.0939815
0.0939707
0.0939014
0.0938855
0.0939532
0.091713
0.0932412
0.0937798
0.0939197
0.0939575
0.0939925
0.0940027
0.0940852
0.0942154
0.0942676
0.0941047
0.0942808
0.094327
0.0943256
0.0942397
0.0941943
0.0941636
0.0942439
0.0943851
0.0941257
0.0938969
0.0942682
0.0943221
0.0943215
0.0942676
0.0942476
0.0942744
0.0943555
0.0943786
0.0940446
0.0938009
0.0942504
0.0943261
0.0943382
0.0943258
0.0943228
0.094333
0.0943414
0.0942127
0.0932818
0.093515
0.0941608
0.0942942
0.0943246
0.0943259
0.0943101
0.0942793
0.0941274
0.0934941
0.0931874
0.0932679
0.0940205
0.0941977
0.0942605
0.0942715
0.0941996
0.0939982
0.0935836
0.0933942
0.0934852
0.093182
0.0938669
0.0940081
0.0940535
0.094062
0.0938838
0.0935833
0.0934342
0.0934231
0.0938862
0.0931239
0.0937345
0.093864
0.0938777
0.0937551
0.0935684
0.0934179
0.093377
0.0935516
0.094014
0.0932242
0.09352
0.0936691
0.0937147
0.0935719
0.0934286
0.0933656
0.0933707
0.0936794
0.094132
0.0933578
0.0934063
0.0934217
0.0935011
0.0934794
0.0933702
0.0933383
0.0933654
0.0936897
0.0941
0.0933614
0.0933486
0.0933542
0.0933045
0.0933043
0.0932564
0.0932777
0.0933464
0.0936715
0.0939158
0.0971164
0.0971215
0.0968825
0.096758
0.0965752
0.0962079
0.0955571
0.0945648
0.0914003
0.0859422
0.0973718
0.096909
0.0967378
0.0966747
0.0965105
0.0961242
0.0953879
0.0939819
0.0901696
0.0848679
0.0974041
0.0968479
0.0966826
0.0965991
0.09642
0.0959637
0.0949694
0.0924992
0.0871789
0.0854051
0.0974344
0.0968555
0.0966662
0.0965305
0.0962569
0.095583
0.0938852
0.0893528
0.0872618
0.087521
0.0973565
0.0968543
0.0966285
0.0963861
0.0958865
0.0945918
0.0913686
0.0883138
0.0878167
0.091609
0.0971304
0.0968249
0.0965345
0.0960651
0.095147
0.0931298
0.0896474
0.0882054
0.0886234
0.093528
0.0970578
0.0967537
0.0964006
0.0957778
0.0943418
0.0918105
0.0890628
0.088236
0.0900664
0.0942491
0.0965035
0.0965724
0.0960669
0.095285
0.0938811
0.091499
0.089086
0.0883039
0.0901729
0.094416
0.0959171
0.0964736
0.0957405
0.0948426
0.0936423
0.0916306
0.0893288
0.0884925
0.0899947
0.0943587
0.0962321
0.0962034
0.0951709
0.0944372
0.0935228
0.0922991
0.090231
0.0889881
0.0895773
0.0941659
0.0567878
0.0576564
0.0642425
0.0689801
0.0677173
0.0690194
0.0677621
0.0517295
0.0572129
0.0579143
0.0505203
0.0540184
0.0644552
0.0684001
0.064528
0.0624303
0.0577952
0.0458199
0.0545123
0.055839
0.0583625
0.0639933
0.0697986
0.0651424
0.0595235
0.0583016
0.0532575
0.0436601
0.0478347
0.0543995
0.0538843
0.0685522
0.0665973
0.0589289
0.0554668
0.0513842
0.041988
0.0399872
0.0452587
0.0553798
0.0485123
0.0571395
0.0521243
0.0482403
0.0452816
0.04146
0.0405771
0.0428243
0.0539052
0.0546827
0.0457572
0.0510341
0.0497264
0.0481394
0.0480359
0.04898
0.0548708
0.0606839
0.0636796
0.0569043
0.0439993
0.0623292
0.0654848
0.0670946
0.0672731
0.0676158
0.06625
0.0668683
0.0617839
0.0638445
0.0411752
0.0537544
0.0596011
0.0670534
0.0663834
0.0661029
0.0656819
0.0677701
0.0653603
0.0677896
0.039142
0.049769
0.0512792
0.0538457
0.0599141
0.0624491
0.0661278
0.0675987
0.0653117
0.0667867
0.038433
0.0467274
0.0495286
0.0504043
0.0552909
0.0615159
0.065124
0.0653538
0.0632679
0.0648016
0.00932999
0.00922751
0.00913892
0.00931453
0.00939419
0.00893502
0.00687179
0.00552458
0.00511388
0.00501582
0.00919897
0.00913788
0.00916247
0.00924494
0.00898463
0.00751371
0.005994
0.00554718
0.00581937
0.00489422
0.00909644
0.00911362
0.00912986
0.00906876
0.00835239
0.00667035
0.00564624
0.00540089
0.00480143
0.00476618
0.00904684
0.00906113
0.0090396
0.00883259
0.00806488
0.00671765
0.00572423
0.00504725
0.00489451
0.00513908
0.00898687
0.00899602
0.00895597
0.00871724
0.00805383
0.00693452
0.006132
0.00560052
0.00574632
0.00614989
0.00892415
0.00891416
0.00878465
0.00849427
0.00800329
0.00750926
0.00669588
0.00670571
0.00675407
0.00675082
0.00879412
0.00874005
0.00860067
0.00839299
0.00802145
0.00784561
0.00746186
0.00732846
0.00698331
0.0069337
0.0086943
0.00861794
0.00833742
0.00749717
0.00759703
0.00762104
0.00754869
0.00738314
0.00694481
0.00719164
0.00852833
0.00805815
0.00727333
0.00708083
0.00697955
0.00714216
0.00705023
0.00724506
0.00758787
0.00782204
0.00838611
0.00776982
0.00718876
0.007207
0.00697646
0.00693315
0.0070905
0.00738272
0.00748406
0.0074765
0.00511581
0.00523596
0.00528836
0.00541489
0.00547151
0.00551072
0.00545734
0.0051484
0.00414935
0.00286832
0.0052394
0.00525761
0.00530693
0.00534757
0.00534675
0.00522079
0.0048203
0.00378364
0.00280893
0.00250436
0.00521689
0.00521375
0.00518869
0.00508618
0.00486242
0.00430595
0.00310158
0.00211136
0.00181302
0.00229594
0.00510504
0.0050103
0.0047824
0.00432375
0.00345073
0.00224567
0.00127915
0.000853262
0.00075681
0.00175601
0.00473488
0.00438294
0.00366961
0.00267835
0.00179565
0.000955537
0.000438276
0.000236513
0.000184596
0.000891297
0.00353969
0.00278373
0.00194431
0.00145331
0.000889605
0.000543689
0.000185452
5.86315e-05
0.000129945
0.000774223
0.00222129
0.00169541
0.00143025
0.00127711
0.0011228
0.000703937
0.000303458
7.02455e-05
0.000170521
0.000729575
0.00169266
0.00155277
0.00151044
0.00163489
0.00167256
0.000919068
0.000455603
0.000103359
0.000282986
0.000595674
0.00162973
0.00159958
0.001822
0.00196112
0.00190282
0.000972699
0.000489777
0.000155091
0.000400363
0.000489631
0.00188919
0.00167254
0.00195792
0.00218328
0.00204724
0.000992091
0.000621954
0.000262295
0.000363989
0.0002521
0.000985223
0.000433903
0.000184985
7.41677e-05
3.89297e-05
3.04188e-05
4.24925e-05
6.98066e-05
0.000151754
0.000555109
0.00132753
0.000659057
0.000228924
6.82445e-05
1.84538e-05
7.02645e-06
4.17364e-06
6.26138e-06
4.40367e-05
0.000344848
0.00183768
0.00125345
0.000454573
0.000133503
2.94682e-05
5.99363e-06
6.25643e-07
6.10886e-07
1.08838e-05
0.000123034
0.00234521
0.00199339
0.0012785
0.000513294
0.000200318
5.03227e-05
2.13983e-06
8.63486e-08
9.69866e-07
1.54091e-05
0.00274598
0.00255909
0.00224944
0.00176023
0.00114003
0.000444709
2.08074e-05
3.34495e-07
2.00359e-07
2.39703e-06
0.00298565
0.00291111
0.00273908
0.00242916
0.00182232
0.000911433
0.000156635
3.52517e-06
2.44002e-07
4.6587e-07
0.00304918
0.00301495
0.002897
0.00264279
0.00223986
0.00140658
0.000432055
3.56408e-05
1.51172e-06
2.45696e-07
0.0030401
0.00302357
0.00294822
0.00276687
0.00251426
0.00198817
0.000893287
0.000184365
1.182e-05
7.09702e-07
0.0029558
0.00299529
0.0029552
0.00284793
0.00266627
0.00233645
0.00145561
0.000490137
6.16724e-05
4.21337e-06
0.00247211
0.00287683
0.00291167
0.00284275
0.00269339
0.00250157
0.00196954
0.000924093
0.000178991
1.69013e-05
0.0799612
0.0808714
0.0795377
0.0776346
0.0768319
0.0764519
0.0762882
0.0764081
0.0769949
0.0782634
0.0796041
0.0817475
0.0829137
0.0822647
0.0806762
0.07913
0.0782634
0.0783936
0.0789681
0.0797312
0.077564
0.0802492
0.082869
0.0841626
0.0842079
0.0837268
0.0830068
0.0824474
0.0822874
0.0816599
0.0760972
0.0776353
0.0810058
0.0839649
0.0849364
0.0851263
0.0849764
0.0846036
0.0836677
0.0817753
0.076054
0.0773239
0.0800154
0.0832602
0.0846685
0.0850992
0.0850323
0.0846068
0.0832036
0.08119
0.0765408
0.0779838
0.0799795
0.0820133
0.0834392
0.0842111
0.0841115
0.0833219
0.0815751
0.0793871
0.0771746
0.0779543
0.0790879
0.0802094
0.0810976
0.0814869
0.0811224
0.0801094
0.078708
0.0781305
0.0771332
0.0774605
0.0777846
0.0782566
0.0785693
0.0786494
0.0783481
0.0778531
0.077676
0.0778927
0.0771729
0.0773979
0.0775759
0.0778201
0.077938
0.0779743
0.0779109
0.0778495
0.0778785
0.0781521
0.07739
0.0776034
0.0779693
0.0783213
0.0784736
0.0785156
0.0785195
0.078612
0.0789287
0.0795051
0.0777632
0.0787303
0.0786242
0.0778296
0.0770518
0.076731
0.0765138
0.0764233
0.0764818
0.0768639
0.0776677
0.0788925
0.0800781
0.0809201
0.0804478
0.0793811
0.0782401
0.0776158
0.0776523
0.078418
0.0770412
0.0779341
0.079641
0.0811919
0.082573
0.0830692
0.0826759
0.0818773
0.081603
0.0820822
0.0763694
0.0767402
0.0778551
0.0800398
0.0824104
0.0840731
0.0846747
0.0846317
0.0845209
0.0844065
0.0761521
0.0765057
0.0773104
0.078827
0.0814857
0.0839116
0.0848273
0.0851695
0.0851379
0.0848159
0.0762529
0.0766724
0.0773947
0.0789412
0.0812018
0.0833009
0.084341
0.08486
0.0848225
0.084383
0.0764951
0.0769011
0.0778153
0.078923
0.0804782
0.0816929
0.0827773
0.083378
0.0833477
0.0827387
0.0767062
0.0769888
0.0774989
0.0781575
0.0787601
0.0793766
0.0801055
0.0805397
0.0803523
0.0799813
0.0769464
0.0770365
0.077196
0.0774507
0.0777891
0.0779855
0.0782224
0.0785136
0.0784378
0.0785327
0.0773543
0.0772999
0.0773455
0.0775213
0.0777921
0.0779947
0.078209
0.0783341
0.0784184
0.0785629
0.0769526
0.077565
0.0777652
0.0775894
0.0771522
0.0768754
0.0767405
0.0765857
0.0765317
0.0765928
0.0769806
0.0775988
0.0783534
0.079156
0.0796529
0.0793455
0.078662
0.0778183
0.0774654
0.0776968
0.0768592
0.0771399
0.0778823
0.0790871
0.080216
0.0813897
0.0820564
0.0817358
0.0811502
0.0816066
0.0766818
0.0767251
0.0770225
0.0779329
0.0796079
0.0813414
0.0830495
0.0841177
0.0843077
0.0845704
0.0766752
0.0766363
0.0768031
0.0772782
0.0783177
0.0803378
0.0828148
0.0844439
0.0850455
0.0853901
0.076561
0.0766502
0.0768357
0.0772847
0.0781738
0.0799645
0.0823842
0.0841961
0.0848755
0.085287
0.0765283
0.076656
0.0769536
0.0774082
0.0783237
0.079988
0.0818068
0.0831372
0.083926
0.0843529
0.076631
0.0767143
0.0769192
0.0773639
0.0780617
0.0790419
0.0800068
0.0808854
0.0816757
0.0825787
0.0768553
0.0768864
0.0769593
0.0771012
0.077346
0.07776
0.0781569
0.0788433
0.0794396
0.0801761
0.0773626
0.0773178
0.0772359
0.0772308
0.0773195
0.0774833
0.077731
0.0781766
0.0784084
0.0787465
0.0766872
0.0770574
0.0772191
0.0772019
0.0770876
0.0769291
0.0768401
0.0767572
0.0766558
0.0766289
0.076725
0.077101
0.0775609
0.0781526
0.0787365
0.0789158
0.0787503
0.0783907
0.0776996
0.0778149
0.07674
0.0768723
0.077255
0.0780622
0.078947
0.0798621
0.0809303
0.0815766
0.0812728
0.0816242
0.0767407
0.07672
0.0768233
0.0772819
0.0783503
0.0796869
0.0811619
0.082643
0.0834819
0.0844215
0.0769247
0.07675
0.0767717
0.0769315
0.0774096
0.0786128
0.0805632
0.0824661
0.0840005
0.0850777
0.0769414
0.0767484
0.0767766
0.0769077
0.07726
0.0781055
0.0798895
0.0818973
0.083875
0.0849614
0.0767657
0.0767063
0.0767717
0.076942
0.0773116
0.0781359
0.0795984
0.0814975
0.0832153
0.0841543
0.0767099
0.0767231
0.076785
0.0769449
0.0772435
0.0778621
0.078793
0.0803207
0.081505
0.0826395
0.0768617
0.0768729
0.0769142
0.0769932
0.0771011
0.0772747
0.0776546
0.0785639
0.0792852
0.0808913
0.0773395
0.0773805
0.0773292
0.0772535
0.0772408
0.0772804
0.0773943
0.0777864
0.0782095
0.0792598
0.0766105
0.0768955
0.0769682
0.0769337
0.0769097
0.0768842
0.0768544
0.0768264
0.0767937
0.0767332
0.0766524
0.0769343
0.0772306
0.0776947
0.0780928
0.0783362
0.0785393
0.0784901
0.0782676
0.07841
0.0766664
0.0767887
0.0770851
0.0776605
0.0783923
0.0791156
0.0798179
0.0809853
0.0812748
0.0819504
0.0767058
0.0767044
0.0767867
0.0771519
0.0780482
0.0790431
0.0799198
0.0814051
0.082374
0.0838598
0.0769163
0.0767542
0.0767676
0.0768859
0.0772815
0.0783376
0.0795094
0.0810199
0.0822202
0.0839062
0.0770014
0.0767994
0.0767837
0.0768501
0.0770857
0.0777582
0.0790449
0.0803953
0.0818101
0.0834528
0.0769369
0.0767735
0.076778
0.076859
0.0770874
0.0775731
0.0784905
0.0799457
0.0813953
0.0830379
0.0768445
0.0767693
0.0767903
0.0768885
0.0770482
0.0772786
0.077741
0.0788438
0.080498
0.0822408
0.0769042
0.0768878
0.0769353
0.0770129
0.077086
0.0771586
0.0773111
0.0777794
0.0786617
0.0807338
0.0772588
0.0773449
0.0774676
0.0774447
0.0773419
0.077285
0.0773175
0.0774753
0.0778378
0.0791898
0.0766535
0.0768511
0.0768343
0.0768336
0.0768412
0.076835
0.0768205
0.0768249
0.0768754
0.0768787
0.0766575
0.0768872
0.0771753
0.0773903
0.0776494
0.0777992
0.0780041
0.0784134
0.0785417
0.0790498
0.0766509
0.0767864
0.0770915
0.0775063
0.0781814
0.0787486
0.079228