/*--------------------------------*- C++ -*----------------------------------*\
  =========                 |
  \\      /  F ield         | OpenFOAM: The Open Source CFD Toolbox
   \\    /   O peration     | Website:  https://openfoam.org
    \\  /    A nd           | Version:  9
     \\/     M anipulation  |
\*---------------------------------------------------------------------------*/
FoamFile
{
    format      ascii;
    class       volScalarField;
    location    "80";
    object      p_rgh;
}
// * * * * * * * * * * * * * * * * * * * * * * * * * * * * * * * * * * * * * //

dimensions      [1 -1 -2 0 0 0 0];

internalField   nonuniform List<scalar> 
137980
(
161830
161830
161830
161903
161994
162052
162259
162721
162838
165361
161779
161865
161971
162151
162360
162554
162797
163358
164651
166499
161734
161820
161978
162225
162507
162757
163055
163955
165552
166553
161555
161644
161826
162112
162462
162844
163383
164409
165761
166440
161268
161373
161564
161872
162299
162851
163599
164627
165730
166347
160967
161070
161247
161540
162000
162654
163515
164546
165561
166166
160813
160813
160924
161133
161551
162198
163071
164068
164960
165489
160928
160794
160753
160791
161050
161584
162317
163110
163705
163932
161290
161055
160799
160621
160639
161016
161553
162151
162419
162023
161789
161198
160838
160576
160424
160496
160733
160993
161527
161108
161710
161737
161807
161878
161873
161738
161631
161810
161387
164733
161723
161826
161992
162211
162383
162425
162432
162437
163429
165516
161697
161835
162054
162361
162658
162825
162969
163596
165121
166518
161532
161688
161951
162361
162807
163233
163839
165002
166561
167530
161266
161442
161717
162165
162816
163630
164692
166098
167638
168560
161025
161175
161383
161782
162527
163676
165067
166636
168089
168781
160952
160918
160976
161277
162001
163236
164840
166556
168017
168725
161137
160866
160770
160851
161369
162443
163973
165740
167333
168010
161427
161068
160772
160577
160816
161602
162799
164217
165523
165734
161847
161278
160807
160420
160371
160736
161389
162109
163189
162467
161489
161557
161672
161661
161337
160574
159977
161209
160794
165971
161576
161711
161896
162005
161907
161365
160778
161039
162281
165953
161589
161782
162002
162181
162203
161833
161363
161562
163416
166133
161478
161724
162016
162295
162450
162389
162230
162714
164535
166453
161280
161577
161948
162365
162707
163018
163305
164071
165628
166945
161121
161400
161765
162314
162908
163524
164295
165313
166667
167603
161089
161169
161410
162033
162972
163961
165044
166327
167625
168368
161118
160967
161106
161659
162734
164067
165602
167270
168565
169172
161224
160905
160869
161234
162288
163791
165453
167380
169192
169400
161597
161012
160629
160641
161492
162918
164471
166378
168859
167953
161185
161233
161300
161013
160088
158871
159686
160578
162956
169853
161359
161522
161633
161500
160752
159916
160465
162173
164667
170072
161423
161679
161834
161771
161146
160540
160974
163075
165760
169789
161433
161733
161930
161947
161529
161193
161790
163921
166313
169174
161352
161725
162006
162114
162039
162010
162893
164774
166588
168379
161261
161678
162041
162262
162471
162912
163927
165607
166923
167722
161176
161508
161966
162373
162813
163591
164825
166385
167393
167820
161038
161203
161819
162456
163104
164109
165586
167177
168079
168161
160864
160867
161423
162466
163416
164638
166308
168063
169289
168977
161019
160963
161174
162030
163220
164509
166248
168463
170020
169131
160960
160603
160287
159145
157504
157734
159283
162070
168998
173344
161263
161224
160841
159819
158876
159147
161462
165037
170403
172819
161514
161689
161492
160846
160245
160672
163476
167278
170735
171565
161688
162047
162119
161870
161661
162439
165213
168477
170220
170126
161703
162226
162513
162656
163002
164116
166261
168312
169439
168863
161650
162245
162676
163145
163995
165343
166945
168039
168614
167592
161523
162114
162670
163344
164482
166051
167390
167967
167864
166740
161202
161770
162574
163477
164765
166260
167520
168017
167676
166610
160659
161232
162388
163648
164996
166329
167613
168191
168105
167037
160368
161277
162293
163528
164815
166138
167568
168638
169037
168000
160031
158414
157650
156525
156541
158685
162202
167864
172542
173594
160210
158790
157777
157333
158628
161925
166077
170137
171489
169354
160875
159952
159369
159464
161880
165421
168477
169578
168400
163827
161894
161555
161395
162179
164542
166983
168197
168198
164490
159558
162882
163076
163341
164285
165982
167318
167652
166076
161831
158226
163564
164261
164862
165748
166716
167116
166588
164050
160016
157403
163849
164955
165861
166607
166983
166800
165529
162921
159594
157586
163581
164877
166131
166896
167106
166801
165557
163209
160267
159103
162925
164461
165979
166844
167088
166923
165856
164107
161777
160844
162294
164144
165685
166689
167016
166935
166314
165553
164407
163476
157790
156848
157699
160342
163847
167074
169204
169705
168394
167371
158578
158147
160067
163233
166318
168142
168620
167133
164597
162837
159979
160317
162691
165237
167058
167614
166518
163419
160694
158842
161453
162396
164299
165877
166578
166185
163492
160160
157987
156723
162878
163844
164970
165643
165693
164044
160696
157758
156155
155533
164076
164740
165211
165349
164582
162086
158658
156038
154951
154961
164934
165314
165433
165196
163478
160432
157113
154798
154016
155497
165430
165693
165705
165217
163371
160408
156880
154908
154369
156451
165414
165800
165842
165347
163708
161051
157801
155910
155435
157177
165229
165740
165807
165550
164324
162403
159872
158271
158016
159159
165289
165679
165719
165714
165233
164531
163753
163111
162757
162604
164055
164166
163649
163024
162149
161253
160610
160304
160269
159997
162855
162519
161538
160452
159312
158463
158029
157952
158270
158430
162000
161326
160016
158404
156879
155730
155058
154914
155545
156361
161793
160766
159037
156901
154847
153308
152658
152883
154351
155606
162050
160848
158793
156074
153487
151681
151064
152251
154290
155996
162587
161262
159142
156207
152878
150456
149653
151093
153711
156204
163161
161925
159947
157040
153541
150610
149452
149404
152113
155705
163660
162658
161007
158501
155256
151867
150025
149960
151713
155070
164053
163169
162043
160340
157796
154870
153286
154207
155921
157451
163333
163658
163180
163016
163055
163076
162945
162870
162837
162906
159903
159601
159040
158535
158271
158599
159272
160094
160761
160991
157593
156520
155560
154767
154494
154664
155630
156722
157869
158719
156435
154727
153346
152301
151827
151746
152919
154385
155929
157149
156152
153945
152088
150707
149949
149735
150841
152860
155160
156865
156483
154287
152089
150192
149095
148702
149191
151145
154242
156973
157608
155389
153003
150953
149440
148684
148659
149963
152564
155948
159542
157110
154738
152785
151185
149945
149643
150181
151943
154825
161283
159070
156880
155283
154061
152767
152198
152779
153921
155082
162502
160750
159349
158600
157134
155333
155174
155888
156566
157620
162189
163160
163921
164214
164441
164628
164828
165037
165169
165125
158574
158970
159474
159679
159992
160428
161061
161657
162001
161830
155702
155183
155274
155063
155161
155962
156925
158054
159067
159452
154013
152053
151990
151849
151862
152606
153566
154885
156305
157342
153390
150700
150234
150187
150291
150902
151849
153219
154965
156651
153248
151210
150072
149851
149835
150242
151066
152361
154233
156661
155196
152969
151208
150498
150244
150381
150967
152164
153805
156130
157858
155518
153205
152117
151692
151710
152148
153204
154402
155883
159605
157687
155433
154360
154162
154077
154339
155189
156162
157053
160825
158995
157523
157477
157226
156280
156032
156700
157593
158300
164777
165267
166096
166943
167670
168193
168559
168742
168813
168106
162969
163581
164130
164622
164999
165179
165227
164846
164194
162967
160919
161026
161037
160975
160942
160756
160445
160098
159661
159001
158534
157918
157424
156551
155801
155229
154969
155418
156133
156415
155669
154658
153973
152758
151651
150793
150378
151016
152285
154089
153887
152406
151322
150430
149523
148834
148673
149051
150016
153106
155360
153242
151491
150137
149218
148705
148696
148979
149350
152136
157093
155496
153269
151338
150284
149751
149812
150136
150531
151966
158534
157271
155184
153418
152513
152009
152065
152424
153168
154798
160367
158432
156515
155755
155375
154566
154390
154820
155501
157440
159944
161003
159429
159350
160481
161942
163853
166830
170105
172098
162981
163287
162460
162413
163478
165184
167263
168970
169829
169595
164056
164356
164077
164186
165507
166702
167627
168068
166961
164400
164494
164870
164833
164834
165530
166136
166385
164982
162205
159130
164028
164893
165053
165023
164770
164224
163063
160547
157774
155729
163023
163950
164424
164414
163422
161728
159211
156397
154483
153989
162020
162477
163119
163333
162338
160004
156537
153634
151967
151875
161681
161301
161716
162063
161522
159753
156844
153862
151252
150628
161960
160668
160648
160796
160481
159495
157586
154798
151865
152263
162755
160978
160010
159913
159647
159153
158156
156236
153291
153909
163947
166012
163561
162254
161911
163106
164185
164169
163818
163567
165851
165139
163162
161529
161332
162134
163366
163939
164126
164273
166352
164108
162328
161044
160854
161438
162560
163408
163799
164118
164548
162814
161283
160492
160524
161137
162053
162712
163130
163638
163745
161903
160542
160131
160273
160824
161459
162039
162567
163120
163684
161256
160007
159849
159942
160289
160777
161357
161842
162475
163746
160709
159539
159494
159493
159643
160039
160426
160726
161020
163009
160434
159321
159157
159257
159193
159323
159422
159423
159128
162056
161015
159640
159060
158966
158820
158764
158702
158623
159705
161479
161417
160135
159302
158955
158683
158471
158268
158319
159654
168133
168687
167182
165149
162994
161535
161234
161371
161734
161754
168723
166907
164441
162029
159895
158792
158862
159265
159932
160598
166396
163906
161531
159266
157503
156695
156904
157603
158580
159814
164486
161976
159166
156920
155514
155300
155794
156857
158166
159835
163763
160481
157379
155324
154478
154654
155506
156840
158277
160038
163302
159235
156316
154543
154191
154533
155597
156940
158376
159907
162464
158656
155975
154329
154186
154672
155702
156935
158233
159389
161681
159056
156463
154602
154284
154959
155916
157016
158182
158979
161368
159773
157421
155449
155024
155579
156412
157425
158681
159791
161549
160018
157937
156368
155914
156472
157089
157756
158763
159895
164591
161345
159309
158408
157941
157519
157507
158105
159541
161341
164952
161022
158182
157006
156580
156587
156899
157707
159049
160359
164409
160245
157276
156092
155835
156015
156519
157351
158471
159662
164090
159614
156551
155365
155207
155567
156266
157137
158160
159405
163965
159271
156213
154981
154879
155375
156160
157040
158009
159217
163722
159170
156173
154905
154829
155376
156171
157021
157959
159013
163333
159728
156715
155309
155183
155667
156336
157097
158017
159039
163054
160442
157539
156042
155866
156303
156775
157342
158157
159066
162957
160962
158459
157018
156834
157357
157684
157956
158626
159424
163204
160916
159063
157911
157785
158536
158920
158967
158989
159234
165536
162416
159943
158190
157056
155551
154873
155705
157818
160301
166745
162960
159860
157827
156696
155772
155147
155740
157422
159240
167159
163195
159895
157929
156903
156188
155818
156178
157173
158518
167337
163447
159853
157939
157079
156454
156152
156448
157181
158236
167516
163858
160384
158276
157318
156735
156391
156608
157252
158306
167723
164426
160942
158708
157659
157046
156625
156752
157372
158497
167875
165061
161726
159347
158286
157628
156955
156825
157344
158483
167979
165536
162652
160278
159243
158671
157749
157155
157255
157927
168043
165818
163418
161275
160463
160129
159318
158367
158128
158483
167930
165888
163810
162169
161674
161567
161030
160259
159817
160467
167416
164934
162683
160511
158384
156137
154855
153926
151191
145003
168489
165453
162427
159865
157667
155546
154060
152214
150977
147877
169654
166740
163496
160363
157550
155250
153241
151114
148986
145074
170379
167812
164615
161388
158346
155479
152917
150249
148126
144695
171017
168821
165728
162438
159164
155777
152780
149979
147686
144657
171543
169743
166823
163526
160225
156513
152813
149924
147881
146472
171915
170468
167791
164548
161391
157856
154046
150832
148931
147841
172090
170858
168450
165242
162454
159619
156002
152446
150189
149218
172086
170955
168736
165511
163048
161320
158709
155279
152297
150377
171958
170193
167670
164757
163133
162408
161232
159177
156786
155112
165405
162825
161511
160158
158328
156060
153091
150000
148585
148378
165669
164667
162974
160799
158268
155268
151794
148211
146724
147265
165605
165243
163601
161157
158099
154698
151029
147374
145895
146743
166435
165626
163977
161351
157979
154206
150288
146783
145398
145377
166729
165789
164223
161506
157948
153939
149702
146462
145302
145170
166676
165860
164365
161609
158066
153882
149426
146437
145589
145722
166279
165911
164460
161676
158174
154058
149355
146443
145818
146111
165764
165968
164414
161516
158270
154473
149822
146638
145942
146160
165401
165930
164165
161165
158323
154959
150553
147230
146069
145635
165228
165927
163885
160512
158046
155509
151060
148524
148247
148359
157668
155382
153677
152672
152129
153013
154475
157668
160542
163334
158308
156891
155407
154164
153741
154787
156587
159005
161235
164606
161113
159457
157875
156360
155671
156588
158446
160797
163835
167908
163183
161874
160250
158531
157787
158930
161096
163716
166049
167025
164343
163621
162403
160844
160124
161179
162983
164474
165268
163174
164883
164731
164363
163305
162500
162512
163064
163684
163087
158613
164846
165271
165707
165697
164264
163090
162497
162129
160019
154550
164203
165103
165770
166100
165705
163566
161631
160285
156852
151532
163611
164674
165328
165745
165721
164260
161618
158550
153316
148285
163869
164725
164949
165079
165274
164574
162078
158156
153683
149283
155380
153165
155205
155276
154344
156184
158968
161093
162563
164901
155295
152120
153416
154425
154963
156949
159265
161089
163114
165997
156149
154080
154222
154814
155733
157675
159665
161534
164075
165804
157760
156413
155920
155933
156887
158772
160783
162759
164192
163984
158584
157927
157666
157788
158669
160377
162117
163292
163537
160409
159265
159134
159447
160044
160776
161878
162764
162930
162016
156877
158767
160145
161021
162066
162597
162791
162742
162373
160223
153662
158499
160661
162067
163377
163845
163429
162696
161446
158485
150262
158117
160646
162614
164002
164597
164109
163017
161466
158178
148297
158628
160705
162810
164444
165150
164838
163914
161444
157552
145404
126892
128099
129340
132539
136278
139373
139154
134878
127564
127755
124202
127881
130605
133049
136275
139649
141420
136354
126420
126859
126886
129953
131381
132824
135852
139250
140064
135856
127366
126237
128118
132200
131380
132210
134977
137192
136221
132550
127942
126480
130663
131059
129552
130552
132414
132416
131795
130645
129033
126729
133442
130336
129152
129252
129822
130188
130364
131609
132411
129410
132799
131180
131249
131629
131903
131750
131652
132192
134008
129032
131056
131841
132121
132453
133008
133151
132266
131577
132562
128339
128327
132570
131536
130524
132807
134228
133053
130049
130709
129494
128939
131667
129318
128649
130981
133202
132409
129095
127741
129069
101809
101843
101865
101856
101764
101618
101432
101225
101019
100855
101846
101920
101979
102009
102008
101981
101935
101771
101609
101469
101901
102099
102268
102390
102460
102478
102454
102377
102295
102216
102242
102558
102831
103043
103184
103252
103232
103173
103099
103012
102794
103216
103596
103917
104171
104348
104292
104212
104112
103990
103479
103999
104480
104903
105252
105527
105477
105408
105312
105170
104216
104831
105428
105984
106468
106880
106838
106777
106680
106489
104945
105690
106435
107165
107728
108241
108205
108133
108032
107768
106123
107173
108154
108941
109458
109710
109683
109548
109259
108787
107222
108528
109594
110423
110883
111046
111095
110792
110247
109541
100105
100106
100107
100113
100123
100133
100141
100148
100154
100157
100109
100110
100119
100134
100147
100158
100166
100172
100175
100174
100117
100125
100143
100160
100175
100187
100196
100201
100201
100190
100136
100151
100173
100194
100212
100226
100233
100236
100221
100197
100162
100183
100212
100239
100261
100275
100281
100267
100241
100207
100196
100224
100258
100290
100317
100333
100338
100314
100273
100236
100244
100282
100318
100352
100380
100399
100400
100382
100322
100281
100307
100358
100401
100438
100465
100479
100475
100455
100391
100336
100365
100432
100481
100524
100556
100572
100563
100536
100468
100396
100443
100502
100555
100604
100643
100659
100651
100611
100539
100455
100108
100109
100109
100109
100110
100110
100110
100110
100110
100110
100107
100108
100109
100109
100109
100110
100110
100110
100110
100110
100107
100107
100109
100109
100110
100110
100110
100110
100110
100110
100106
100106
100107
100109
100109
100110
100110
100110
100110
100110
100106
100106
100107
100107
100109
100110
100110
100110
100110
100110
100106
100106
100107
100107
100108
100109
100110
100110
100110
100110
100107
100107
100107
100108
100108
100109
100110
100111
100110
100110
100108
100108
100108
100108
100108
100109
100110
100111
100111
100110
100108
100108
100108
100108
100109
100109
100110
100111
100111
100111
100109
100109
100109
100109
100109
100109
100110
100111
100111
100111
165780
165845
165892
165914
165925
165935
165949
165972
165973
165916
165753
165827
165898
165954
165996
166026
166051
166081
166091
166052
165753
165830
165911
165985
166048
166101
166149
166196
166214
166169
165777
165859
165937
166020
166100
166171
166235
166287
166292
166241
165827
165908
165987
166073
166163
166242
166307
166345
166331
166271
165897
165975
166058
166146
166230
166300
166351
166357
166326
166260
165964
166044
166132
166212
166278
166326
166343
166332
166294
166225
166000
166084
166169
166232
166275
166301
166301
166277
166236
166176
165974
166065
166140
166195
166230
166243
166236
166211
166175
166129
165905
165999
166070
166126
166160
166173
166169
166152
166119
166074
165645
165718
165772
165806
165819
165824
165829
165836
165831
165809
165588
165669
165749
165811
165857
165888
165908
165921
165920
165922
165563
165646
165735
165816
165883
165937
165980
166016
166041
166058
165563
165650
165740
165826
165907
165980
166045
166100
166142
166156
165588
165678
165768
165856
165942
166026
166104
166170
166216
166215
165646
165733
165819
165906
165992
166077
166157
166217
166254
166241
165725
165800
165883
165968
166051
166128
166192
166234
166251
166234
165795
165860
165944
166024
166095
166154
166195
166221
166224
166205
165827
165891
165973
166045
166102
166144
166171
166182
166175
166158
165812
165882
165958
166024
166074
166105
166121
166125
166114
166095
165549
165623
165691
165737
165764
165776
165782
165786
165779
165759
165484
165557
165644
165716
165768
165805
165830
165846
165847
165848
165451
165526
165617
165706
165779
165835
165879
165914
165935
165953
165434
165522
165616
165708
165790
165862
165922
165974
166015
166045
165442
165533
165629
165723
165812
165890
165961
166026
166081
166117
165473
165567
165661
165754
165842
165923
165997
166067
166128
166166
165533
165618
165707
165795
165878
165957
166029
166096
166149
166182
165601
165671
165753
165835
165912
165982
166046
166102
166145
166170
165654
165710
165786
165863
165932
165990
166042
166086
166118
166136
165675
165724
165794
165865
165927
165976
166016
166049
166069
166079
165493
165567
165646
165703
165739
165758
165768
165769
165758
165742
165424
165491
165578
165654
165711
165755
165785
165802
165808
165813
165390
165462
165551
165638
165712
165768
165813
165848
165872
165890
165373
165459
165553
165644
165724
165792
165849
165896
165933
165963
165379
165472
165568
165660
165744
165818
165881
165937
165985
166026
165399
165496
165591
165682
165766
165841
165908
165968
166022
166072
165435
165527
165618
165704
165784
165857
165923
165983
166040
166093
165482
165560
165641
165721
165795
165861
165922
165982
166038
166088
165529
165590
165660
165731
165798
165857
165912
165966
166018
166065
165568
165616
165675
165737
165796
165848
165895
165942
165984
166020
165502
165564
165645
165705
165743
165764
165770
165763
165750
165735
165407
165469
165554
165629
165686
165726
165755
165775
165782
165791
165359
165432
165521
165607
165676
165729
165769
165802
165827
165848
165340
165428
165524
165613
165688
165749
165800
165843
165879
165907
165348
165442
165541
165633
165710
165776
165833
165881
165924
165961
165370
165468
165566
165656
165732
165798
165856
165907
165955
165998
165403
165497
165589
165673
165744
165805
165861
165913
165962
166010
165445
165527
165607
165680
165743
165799
165850
165900
165950
165999
165494
165557
165621
165683
165735
165783
165828
165875
165923
165972
165543
165588
165643
165696
165740
165777
165812
165852
165895
165937
165632
165650
165693
165739
165774
165788
165783
165766
165739
165717
165479
165506
165566
165630
165682
165716
165738
165751
165758
165768
165380
165438
165514
165592
165657
165705
165740
165768
165791
165813
165337
165421
165513
165597
165668
165722
165765
165802
165835
165864
165346
165436
165531
165619
165692
165751
165799
165840
165878
165913
165374
165465
165559
165644
165716
165775
165822
165864
165905
165945
165405
165494
165581
165660
165727
165779
165824
165866
165907
165949
165442
165520
165596
165666
165724
165768
165807
165847
165888
165929
165493
165552
165612
165670
165717
165750
165782
165817
165856
165897
165553
165591
165641
165689
165726
165749
165769
165796
165830
165866
165846
165792
165785
165796
165811
165807
165788
165752
165717
165695
165652
165612
165626
165660
165695
165717
165727
165729
165733
165743
165488
165502
165542
165598
165650
165690
165719
165741
165760
165782
165385
165445
165521
165595
165657
165703
165739
165771
165800
165829
165375
165450
165536
165615
165681
165731
165771
165807
165840
165874
165402
165482
165567
165644
165708
165757
165796
165831
165865
165900
165440
165517
165595
165664
165720
165763
165798
165831
165864
165900
165479
165546
165611
165670
165717
165753
165781
165809
165841
165874
165533
165580
165630
165676
165711
165736
165756
165779
165807
165837
165594
165622
165664
165701
165725
165736
165744
165759
165781
165805
165981
165913
165865
165839
165822
165795
165762
165721
165683
165658
165813
165726
165699
165700
165708
165711
165708
165703
165703
165712
165643
165596
165595
165619
165651
165678
165698
165715
165731
165751
165489
165503
165545
165598
165648
165687
165717
165744
165770
165797
165426
165478
165546
165611
165668
165712
165747
165779
165808
165840
165439
165502
165573
165640
165695
165738
165772
165802
165831
165862
165477
165541
165607
165667
165714
165748
165777
165803
165829
165858
165523
165578
165632
165680
165716
165742
165762
165783
165805
165829
165579
165616
165653
165688
165712
165727
165739
165752
165770
165789
165634
165654
165685
165711
165724
165725
165725
165730
165742
165753
166009
165951
165892
165841
165798
165756
165711
165665
165628
165601
165881
165793
165748
165722
165703
165689
165678
165667
165664
165671
165738
165663
165636
165639
165649
165661
165673
165685
165701
165718
165585
165561
165572
165603
165639
165669
165694
165718
165743
165768
165487
165512
165557
165608
165654
165693
165725
165754
165782
165810
165474
165521
165576
165631
165680
165719
165750
165777
165803
165830
165502
165554
165609
165660
165701
165732
165757
165779
165800
165823
165551
165594
165639
165679
165709
165729
165745
165760
165775
165791
165608
165634
165663
165690
165708
165717
165723
165730
165740
165747
165653
165667
165691
165710
165714
165711
165705
165704
165708
165707
165985
165928
165867
165805
165746
165689
165635
165587
165555
165522
165866
165795
165747
165706
165676
165652
165633
165619
165615
165616
165755
165687
165654
165639
165633
165636
165642
165651
165666
165680
165631
165595
165591
165605
165626
165649
165670
165692
165716
165737
165531
165538
165566
165605
165642
165675
165704
165730
165755
165778
165499
165534
165577
165624
165666
165701
165729
165754
165777
165799
165519
165560
165606
165651
165688
165716
165738
165757
165774
165792
165564
165599
165637
165673
165699
165717
165729
165740
165750
165760
165619
165638
165663
165686
165701
165707
165710
165712
165715
165714
165660
165668
165688
165702
165704
165698
165690
165684
165682
165672
165937
165879
165815
165742
165671
165605
165547
165501
165468
165428
165833
165769
165721
165673
165632
165600
165577
165562
165556
165548
165733
165673
165642
165623
165610
165605
165606
165613
165626
165632
165628
165597
165593
165600
165613
165628
165645
165664
165685
165699
165546
165549
165571
165602
165632
165659
165684
165708
165730
165747
165514
165543
165580
165621
165658
165688
165713
165735
165753
165769
165532
165566
165607
165647
165681
165705
165724
165740
165753
165765
165576
165604
165638
165670
165694
165709
165719
165726
165731
165736
165628
165642
165664
165685
165697
165702
165702
165701
165699
165694
165667
165671
165689
165699
165699
165691
165682
165674
165667
165654
165874
165814
165745
165667
165589
165517
165458
165415
165378
165331
165784
165724
165676
165624
165578
165542
165516
165500
165488
165473
165699
165649
165622
165599
165581
165570
165568
165573
165581
165577
165612
165588
165586
165591
165598
165608
165621
165638
165654
165658
165547
165553
165575
165601
165626
165648
165669
165690
165705
165712
165527
165554
165588
165624
165656
165682
165702
165719
165732
165741
165549
165580
165617
165652
165681
165702
165717
165728
165736
165744
165594
165618
165649
165676
165696
165709
165716
165719
165720
165722
165645
165656
165675
165692
165701
165704
165702
165697
165693
165686
165684
165685
165699
165705
165702
165693
165682
165671
165663
165649
165808
165745
165673
165592
165511
165439
165381
165338
165296
165249
165731
165673
165624
165571
165523
165485
165459
165440
165423
165404
165661
165620
165595
165570
165549
165536
165532
165534
165535
165520
165594
165579
165580
165583
165585
165591
165600
165613
165621
165615
165552
165561
165583
165606
165625
165642
165657
165670
165679
165679
165548
165573
165604
165635
165660
165680
165695
165707
165714
165716
165578
165604
165636
165666
165688
165704
165715
165722
165725
165727
165623
165644
165669
165691
165706
165714
165718
165718
165716
165714
165671
165679
165695
165707
165713
165713
165708
165701
165694
165686
165710
165708
165717
165719
165713
165703
165691
165678
165668
165655
165747
165681
165609
165527
165447
165375
165318
165273
165231
165189
165683
165626
165576
165523
165475
165437
165409
165387
165368
165349
165630
165594
165570
165545
165522
165507
165500
165498
165492
165468
165588
165577
165578
165578
165577
165578
165583
165590
165590
165573
165569
165579
165597
165614
165626
165637
165647
165655
165656
165646
165582
165602
165628
165651
165669
165682
165692
165698
165698
165693
165617
165638
165662
165684
165699
165709
165715
165718
165716
165713
165660
165675
165693
165708
165718
165722
165723
165719
165714
165711
165702
165706
165716
165723
165726
165723
165717
165708
165700
165694
165738
165732
165736
165732
165725
165715
165702
165690
165681
165672
165696
165628
165557
165477
165400
165331
165277
165235
165195
165152
165649
165591
165541
165489
165442
165405
165376
165352
165331
165309
165615
165582
165558
165532
165508
165490
165479
165471
165458
165428
165595
165585
165584
165580
165574
165571
165571
165570
165562
165536
165598
165604
165617
165626
165631
165636
165640
165641
165634
165615
165623
165636
165654
165668
165678
165684
165689
165689
165682
165670
165658
165671
165687
165700
165709
165713
165715
165713
165706
165699
165695
165703
165714
165722
165726
165727
165725
165720
165712
165708
165727
165727
165731
165734
165733
165729
165723
165714
165707
165704
165757
165747
165745
165739
165731
165722
165711
165701
165694
165692
165663
165595
165527
165452
165380
165316
165264
165222
165182
165133
165631
165576
165527
165478
165433
165395
165365
165340
165315
165283
165616
165583
165558
165531
165505
165485
165470
165457
165436
165397
165616
165604
165597
165588
165577
165569
165563
165555
165538
165504
165634
165634
165638
165639
165638
165635
165633
165627
165612
165588
165663
165669
165677
165682
165684
165685
165683
165678
165666
165648
165694
165699
165706
165711
165713
165714
165711
165705
165695
165684
165720
165721
165726
165729
165729
165727
165722
165716
165708
165704
165741
165737
165738
165736
165733
165729
165723
165716
165711
165712
165761
165751
165745
165738
165731
165724
165717
165709
165706
165712
165650
165583
165519
165448
165377
165315
165264
165220
165180
165125
165632
165578
165529
165480
165434
165396
165365
165337
165308
165267
165631
165596
165568
165539
165511
165487
165468
165450
165423
165375
165644
165627
165614
165599
165584
165570
165558
165543
165518
165478
165668
165660
165656
165650
165642
165634
165626
165616
165594
165561
165695
165692
165692
165691
165687
165683
165677
165667
165648
165624
165717
165715
165716
165716
165714
165710
165704
165695
165682
165667
165733
165730
165730
165728
165725
165722
165717
165710
165703
165698
165742
165738
165735
165732
165729
165725
165721
165716
165715
165721
165754
165746
165740
165735
165730
165725
165721
165718
165719
165734
165649
165587
165526
165457
165389
165330
165280
165237
165192
165130
165643
165590
165543
165495
165450
165411
165378
165346
165309
165255
165652
165616
165586
165554
165523
165497
165473
165448
165413
165358
165670
165648
165630
165611
165591
165572
165555
165535
165502
165455
165693
165679
165669
165658
165647
165635
165621
165602
165575
165537
165715
165706
165701
165695
165688
165678
165667
165651
165627
165600
165727
165722
165718
165713
165709
165702
165694
165682
165666
165648
165733
165728
165725
165723
165720
165716
165711
165704
165698
165692
165736
165733
165730
165728
165726
165724
165722
165720
165722