/*--------------------------------*- C++ -*----------------------------------*\
  =========                 |
  \\      /  F ield         | OpenFOAM: The Open Source CFD Toolbox
   \\    /   O peration     | Website:  https://openfoam.org
    \\  /    A nd           | Version:  9
     \\/     M anipulation  |
\*---------------------------------------------------------------------------*/
FoamFile
{
    format      ascii;
    class       volScalarField;
    location    "80";
    object      thermo:rho.gas;
}
// * * * * * * * * * * * * * * * * * * * * * * * * * * * * * * * * * * * * * //

dimensions      [1 -3 0 0 0 0 0];

internalField   nonuniform List<scalar> 
137980
(
0.661361
0.660841
0.657812
0.652941
0.649181
0.646358
0.645105
0.645263
0.647061
0.64579
0.665037
0.663707
0.658549
0.653283
0.649658
0.647137
0.645073
0.64458
0.645671
0.645688
0.668524
0.666395
0.658956
0.654062
0.651041
0.648905
0.64699
0.645016
0.644922
0.645176
0.669906
0.667578
0.66021
0.655387
0.652444
0.650544
0.649648
0.646691
0.645394
0.645264
0.669729
0.667903
0.661623
0.657162
0.654607
0.652213
0.651404
0.6505
0.647743
0.64676
0.668685
0.66799
0.663752
0.659198
0.657282
0.654492
0.653109
0.65271
0.652224
0.65151
0.667517
0.66741
0.665687
0.661749
0.659454
0.657978
0.656023
0.655026
0.654459
0.654348
0.667528
0.666996
0.666138
0.663976
0.661786
0.660559
0.659727
0.659184
0.659053
0.658774
0.667521
0.667184
0.666074
0.664482
0.662769
0.662075
0.661688
0.66139
0.661336
0.661436
0.6674
0.66684
0.665398
0.664275
0.663152
0.662513
0.662137
0.661838
0.661706
0.66136
0.658624
0.657633
0.654123
0.650373
0.647116
0.644515
0.643482
0.64447
0.645869
0.644426
0.661235
0.659217
0.654526
0.650653
0.647666
0.645151
0.643504
0.64409
0.645721
0.64523
0.664306
0.660795
0.654932
0.651478
0.649085
0.6469
0.644322
0.643895
0.64529
0.645506
0.665687
0.662206
0.656058
0.652811
0.650444
0.648814
0.645687
0.644449
0.644788
0.645344
0.666075
0.663444
0.657901
0.654654
0.652449
0.650255
0.64812
0.645511
0.645122
0.645385
0.66577
0.664653
0.660694
0.656694
0.654835
0.652201
0.650645
0.647692
0.645998
0.645701
0.665491
0.665195
0.663657
0.659738
0.656989
0.655128
0.653152
0.650989
0.64787
0.646753
0.665821
0.665448
0.66477
0.662907
0.659962
0.658483
0.657156
0.655893
0.653567
0.650266
0.665618
0.665734
0.665218
0.664217
0.662234
0.660639
0.659824
0.659196
0.658601
0.657096
0.665544
0.665343
0.664791
0.664094
0.663031
0.662032
0.661309
0.660749
0.660217
0.660224
0.656095
0.654243
0.651537
0.648562
0.645913
0.643891
0.643089
0.644495
0.646113
0.643878
0.657851
0.655087
0.651806
0.648902
0.646925
0.644127
0.643463
0.644894
0.645755
0.644404
0.659548
0.655976
0.652264
0.649739
0.648233
0.6451
0.643643
0.644984
0.645879
0.644835
0.660962
0.657458
0.653301
0.650975
0.649061
0.64602
0.644196
0.644626
0.645977
0.645102
0.661998
0.659287
0.655226
0.6527
0.650405
0.647318
0.644868
0.64465
0.645874
0.645285
0.662924
0.661607
0.658183
0.654371
0.652387
0.649175
0.645993
0.645128
0.645522
0.645514
0.663345
0.662998
0.661426
0.657381
0.654215
0.651741
0.64765
0.645956
0.645927
0.645959
0.663643
0.663508
0.662937
0.660867
0.657392
0.655231
0.651659
0.647737
0.646879
0.646767
0.662942
0.663642
0.663477
0.662626
0.660072
0.658073
0.65637
0.65252
0.649548
0.648577
0.663178
0.663227
0.662991
0.662817
0.661538
0.659534
0.658516
0.65781
0.657207
0.657428
0.65345
0.651293
0.649585
0.648079
0.646571
0.644207
0.64399
0.645275
0.647167
0.641204
0.654419
0.65204
0.650057
0.64851
0.646112
0.644509
0.64464
0.645412
0.645713
0.64039
0.655732
0.653006
0.650457
0.648854
0.646263
0.644751
0.64487
0.645609
0.645511
0.640147
0.657131
0.654264
0.651205
0.649507
0.646654
0.644827
0.644846
0.645746
0.645531
0.640119
0.658859
0.656132
0.652672
0.650384
0.647436
0.645071
0.644771
0.645801
0.645684
0.640702
0.660314
0.65869
0.655101
0.651441
0.648756
0.645488
0.644916
0.645767
0.645887
0.642036
0.660926
0.660468
0.658435
0.653845
0.649961
0.64628
0.645283
0.645586
0.646057
0.643776
0.661071
0.661147
0.660383
0.657522
0.652661
0.647983
0.645946
0.645855
0.646269
0.644878
0.659859
0.661061
0.661029
0.659724
0.655882
0.651385
0.647419
0.646653
0.647023
0.646021
0.659991
0.660569
0.660718
0.660251
0.657994
0.653715
0.649904
0.649104
0.64967
0.650728
0.650558
0.648853
0.647909
0.646814
0.645127
0.644448
0.645149
0.646493
0.644635
0.636795
0.651186
0.649215
0.647686
0.645865
0.644753
0.644555
0.6449
0.644981
0.640857
0.635722
0.652202
0.649741
0.647657
0.645566
0.644694
0.644672
0.644947
0.643836
0.637599
0.632945
0.653236
0.650518
0.647968
0.645646
0.644615
0.644476
0.644464
0.641866
0.634628
0.62991
0.654823
0.651758
0.648735
0.646058
0.644719
0.644312
0.644114
0.641248
0.634096
0.629142
0.656764
0.654061
0.649925
0.646748
0.644918
0.644269
0.644022
0.641378
0.634874
0.630092
0.657918
0.656473
0.652685
0.647685
0.645313
0.644264
0.643895
0.642069
0.637378
0.632614
0.658176
0.657904
0.655547
0.650109
0.646128
0.644513
0.643837
0.642838
0.640588
0.63739
0.657459
0.657988
0.657312
0.653714
0.648048
0.645588
0.644033
0.643354
0.642217
0.639923
0.657194
0.657679
0.657639
0.655837
0.650527
0.646778
0.644995
0.644506
0.644449
0.643321
0.646162
0.645879
0.645708
0.645334
0.644665
0.644402
0.644712
0.644399
0.637975
0.636104
0.645646
0.645107
0.644531
0.643969
0.6437
0.643871
0.643067
0.639033
0.635571
0.635263
0.645354
0.644238
0.643546
0.643287
0.643325
0.642595
0.639332
0.634148
0.631965
0.631208
0.645533
0.644123
0.643304
0.642872
0.6423
0.640253
0.635069
0.630904
0.628834
0.627437
0.646004
0.644264
0.64314
0.642537
0.641017
0.637667
0.632031
0.62882
0.626957
0.625627
0.646944
0.644644
0.642824
0.641501
0.63945
0.635548
0.630661
0.627919
0.62616
0.625331
0.648956
0.645502
0.643046
0.641291
0.638971
0.635136
0.63061
0.627989
0.626254
0.625871
0.651662
0.647032
0.644028
0.641442
0.6391
0.635305
0.631088
0.628589
0.626863
0.627584
0.652957
0.64982
0.645651
0.642218
0.639795
0.635859
0.632315
0.630053
0.6282
0.628745
0.653723
0.651881
0.64849
0.644124
0.640843
0.637141
0.633947
0.632267
0.631372
0.63023
0.644437
0.643486
0.642537
0.641439
0.640821
0.639567
0.634916
0.633219
0.632565
0.631373
0.643248
0.642531
0.641727
0.640978
0.639627
0.635517
0.632705
0.631933
0.631297
0.631634
0.641716
0.641449
0.640942
0.639708
0.63645
0.632411
0.630753
0.629854
0.629291
0.629123
0.641298
0.640963
0.64002
0.637667
0.63352
0.630501
0.628951
0.627863
0.62666
0.625917
0.641273
0.640305
0.638695
0.63566
0.631541
0.628873
0.627225
0.625559
0.62443
0.624018
0.641389
0.639675
0.637485
0.634123
0.630195
0.627415
0.625535
0.62416
0.62364
0.623906
0.641641
0.639388
0.636809
0.633074
0.6288
0.626346
0.624754
0.623908
0.623721
0.626044
0.64203
0.639471
0.636362
0.632165
0.628237
0.626058
0.624658
0.623974
0.624334
0.62856
0.643053
0.639977
0.63661
0.632339
0.628504
0.626304
0.624919
0.624364
0.625016
0.628183
0.644781
0.639929
0.63673
0.632815
0.62921
0.627036
0.625519
0.625018
0.625481
0.626639
0.633782
0.632292
0.631651
0.631338
0.631172
0.631135
0.631156
0.63114
0.630927
0.630057
0.634371
0.632633
0.631631
0.630721
0.630034
0.629365
0.628951
0.628744
0.628901
0.629721
0.634362
0.632409
0.630893
0.629102
0.627489
0.626524
0.625982
0.625743
0.625923
0.626701
0.634111
0.631844
0.629224
0.626896
0.625539
0.624843
0.624488
0.624386
0.62472
0.625493
0.633678
0.630951
0.627632
0.625703
0.624806
0.624372
0.624337
0.624918
0.626033
0.626703
0.63359
0.630547
0.627021
0.625336
0.624602
0.624235
0.624876
0.627227
0.629758
0.631636
0.633692
0.630168
0.626759
0.62517
0.624374
0.623939
0.624539
0.626524
0.629299
0.634083
0.634008
0.63035
0.626924
0.625198
0.624156
0.623485
0.623563
0.624356
0.625904
0.631694
0.634979
0.630889
0.627373
0.625609
0.624505
0.62357
0.623007
0.62287
0.623435
0.625992
0.634591
0.630668
0.627697
0.62637
0.625294
0.62427
0.623505
0.623253
0.623447
0.62336
0.628801
0.629506
0.629852
0.629864
0.629664
0.629486
0.629667
0.630033
0.630381
0.630423
0.627029
0.627281
0.627108
0.626994
0.627199
0.6276
0.627978
0.628429
0.628999
0.629746
0.626014
0.62592
0.625823
0.626058
0.626453
0.627306
0.628224
0.628743
0.629117
0.629607
0.625703
0.62535
0.62533
0.625585
0.626515
0.627825
0.628916
0.630506
0.632207
0.633248
0.625663
0.625046
0.624684
0.624757
0.625443
0.626498
0.627987
0.630213
0.632625
0.635136
0.625907
0.624981
0.624178
0.623774
0.623849
0.624425
0.625627
0.627432
0.630571
0.634998
0.626477
0.625159
0.623936
0.623113
0.622743
0.622832
0.623259
0.624458
0.626381
0.631026
0.627557
0.625519
0.624134
0.623011
0.622383
0.622277
0.622518
0.623386
0.624444
0.627237
0.629641
0.626438
0.624633
0.623354
0.622666
0.622451
0.622641
0.623366
0.623972
0.625707
0.628675
0.626571
0.624967
0.624009
0.623875
0.623627
0.624966
0.626451
0.626953
0.62675
0.625974
0.627555
0.628293
0.628962
0.629326
0.62974
0.630012
0.63042
0.630601
0.630391
0.623579
0.625424
0.626274
0.627347
0.627993
0.628857
0.629391
0.630145
0.630673
0.631736
0.622374
0.62351
0.624309
0.625509
0.62649
0.627589
0.628579
0.629709
0.63074
0.631895
0.621868
0.622398
0.622936
0.623939
0.625069
0.626306
0.627795
0.629467
0.631038
0.632698
0.621498
0.621584
0.621833
0.622203
0.622912
0.623989
0.625367
0.627202
0.629548
0.631975
0.621551
0.621209
0.621211
0.621279
0.6214
0.621824
0.622679
0.623928
0.626027
0.629865
0.622562
0.621493
0.621076
0.620786
0.620646
0.620758
0.621189
0.622136
0.623643
0.626124
0.624452
0.622155
0.621322
0.620892
0.62059
0.620581
0.620861
0.62167
0.623064
0.624835
0.626802
0.62356
0.62198
0.621277
0.62105
0.621045
0.621336
0.622319
0.624303
0.624906
0.62576
0.623266
0.622249
0.621803
0.621962
0.622014
0.622997
0.626042
0.628681
0.627966
0.623911
0.623832
0.623538
0.623101
0.622912
0.623134
0.623853
0.624841
0.625499
0.62599
0.624232
0.625246
0.625554
0.626061
0.626382
0.626919
0.627391
0.627989
0.628597
0.629972
0.62217
0.623812
0.624398
0.625193
0.625604
0.626222
0.626609
0.627211
0.62781
0.628833
0.620383
0.621801
0.622486
0.623645
0.624273
0.625044
0.625733
0.626331
0.626723
0.626946
0.619245
0.620094
0.620635
0.621472
0.622366
0.62326
0.62408
0.624557
0.624727
0.624693
0.618471
0.6188
0.619196
0.619586
0.620074
0.620666
0.62135
0.621984
0.622385
0.622465
0.618316
0.6182
0.618322
0.618486
0.618576
0.618629
0.618877
0.619387
0.620165
0.620788
0.61948
0.618392
0.618114
0.618029
0.617963
0.617968
0.618104
0.618481
0.619271
0.620092
0.622288
0.620048
0.618558
0.618205
0.618122
0.6181
0.618212
0.618578
0.619583
0.620288
0.623569
0.621256
0.619074
0.618642
0.618729
0.618756
0.619361
0.620826
0.622671
0.622225
0.60849
0.607696
0.606188
0.605031
0.604483
0.604091
0.604321
0.605623
0.607933
0.613526
0.610534
0.609038
0.60792
0.606232
0.60558
0.605304
0.605989
0.608428
0.614553
0.620704
0.612905
0.611558
0.609684
0.608577
0.607962
0.608146
0.610544
0.616503
0.620881
0.623149
0.614633
0.614054
0.612859
0.612349
0.61227
0.614274
0.617836
0.619889
0.620769
0.621298
0.615244
0.615566
0.615765
0.616132
0.617043
0.618337
0.619256
0.619449
0.619582
0.619755
0.614918
0.615805
0.616119
0.616663
0.617504
0.618333
0.618743
0.618685
0.618474
0.618494
0.614275
0.615236
0.615845
0.616357
0.6171
0.617611
0.617515
0.617345
0.61697
0.616687
0.614512
0.614153
0.614891
0.615365
0.615953
0.616308
0.616284
0.615859
0.615564
0.615304
0.616839
0.613698
0.61426
0.614435
0.614583
0.614663
0.614755
0.614783
0.61487
0.614909
0.617164
0.613925
0.61374
0.614175
0.614265
0.614177
0.613959
0.613877
0.614812
0.617529
0.609132
0.60953
0.608661
0.607444
0.606423
0.606531
0.605438
0.602721
0.601635
0.599828
0.610939
0.61054
0.609392
0.607494
0.606015
0.605957
0.606311
0.605495
0.604146
0.602207
0.612371
0.611158
0.609429
0.60696
0.605768
0.605632
0.606244
0.606546
0.605894
0.604328
0.613076
0.611117
0.608358
0.60667
0.605959
0.606077
0.607204
0.607793
0.607304
0.605886
0.612894
0.609778
0.607619
0.606762
0.60653
0.607036
0.608407
0.609011
0.608378
0.607134
0.612336
0.608847
0.607359
0.607074
0.607177
0.608069
0.609445
0.609939
0.609225
0.608749
0.611955
0.608438
0.60721
0.607185
0.607441
0.608267
0.609587
0.610242
0.610066
0.609296
0.611833
0.608324
0.607069
0.606963
0.607492
0.608166
0.609342
0.609931
0.609968
0.609488
0.612898
0.609564
0.607181
0.606766
0.607135
0.607783
0.608689
0.609484
0.609725
0.609738
0.613019
0.611344
0.607966
0.60693
0.606879
0.607266
0.607876
0.608847
0.609909
0.611073
0.607911
0.607426
0.606069
0.604796
0.603567
0.602167
0.601135
0.601036
0.601378
0.601229
0.608283
0.607347
0.605917
0.604144
0.601707
0.600342
0.599738
0.599557
0.599656
0.600385
0.608475
0.606678
0.60461
0.601718
0.600266
0.599588
0.599236
0.599029
0.599075
0.599416
0.607539
0.605123
0.601999
0.600357
0.599672
0.599294
0.599037
0.598921
0.598983
0.599325
0.606453
0.602958
0.600722
0.599813
0.599474
0.599305
0.599167
0.599048
0.599094
0.599711
0.605183
0.601764
0.600205
0.599633
0.599519
0.599476
0.599362
0.599218
0.599233
0.599955
0.604171
0.601243
0.599992
0.5996
0.599594
0.599534
0.599396
0.599312
0.599335
0.599805
0.603571
0.601106
0.599984
0.599576
0.599487
0.599402
0.599488
0.599659
0.599602
0.599584
0.603288
0.601294
0.60022
0.59972
0.599542
0.599608
0.599888
0.600111
0.600115
0.600231
0.602818
0.601689
0.600718
0.599995
0.599765
0.599863
0.60016
0.600531
0.600648
0.600587
0.593586
0.593256
0.592873
0.592784
0.592699
0.59255
0.592758
0.593066
0.592775
0.592704
0.594107
0.593172
0.592565
0.592346
0.592242
0.592302
0.592927
0.593553
0.593588
0.593809
0.594098
0.592596
0.592106
0.591943
0.591926
0.592489
0.593155
0.593585
0.593739
0.594285
0.594059
0.592308
0.591844
0.591801
0.592037
0.592651
0.593188
0.593614
0.593849
0.59425
0.593658
0.592085
0.59176
0.591908
0.592136
0.592672
0.59313
0.59352
0.59382
0.594212
0.593358
0.592035
0.591784
0.59193
0.592172
0.592405
0.592954
0.59324
0.593595
0.593954
0.593145
0.592089
0.591853
0.591923
0.592067
0.592243
0.592713
0.592881
0.593071
0.59332
0.593033
0.59214
0.591842
0.591751
0.591755
0.591924
0.592202
0.592595
0.592743
0.592737
0.592988
0.592261
0.591964
0.591795
0.591688
0.591785
0.5919
0.592246
0.592639
0.592612
0.592888
0.592684
0.592307
0.592003
0.591822
0.591883
0.591863
0.591691
0.591449
0.591143
0.58585
0.585308
0.584913
0.584875
0.585362
0.585727
0.586499
0.586793
0.586148
0.585213
0.586718
0.585481
0.58503
0.585155
0.585519
0.585983
0.586558
0.58735
0.587227
0.587224
0.587104
0.585439
0.584981
0.585227
0.585569
0.586046
0.586638
0.587551
0.587752
0.588094
0.58734
0.585458
0.58503
0.585254
0.58558
0.585967
0.586645
0.5873
0.587961
0.588634
0.587485
0.585511
0.585124
0.585311
0.585571
0.585654
0.586135
0.587004
0.587918
0.588704
0.587604
0.585641
0.585275
0.585376
0.585423
0.585452
0.585599
0.586388
0.587535
0.588503
0.587822
0.585844
0.585469
0.585412
0.585314
0.585306
0.585352
0.58575
0.586918
0.587611
0.58835
0.586148
0.585703
0.585567
0.585342
0.585179
0.585069
0.585311
0.586252
0.586842
0.588947
0.586501
0.586075
0.585878
0.585525
0.585248
0.584975
0.584874
0.58544
0.585519
0.589282
0.587315
0.586672
0.586295
0.585838
0.585483
0.585079
0.584745
0.584536
0.584144
0.579465
0.579937
0.580079
0.579922
0.579507
0.578811
0.57773
0.575406
0.573053
0.57594
0.579961
0.579731
0.57971
0.579539
0.579134
0.578566
0.577708
0.576505
0.575382
0.575572
0.580412
0.579666
0.579583
0.579326
0.578889
0.57835
0.577723
0.577111
0.576367
0.575703
0.581235
0.579803
0.579608
0.579291
0.57881
0.578279
0.577796
0.577407
0.576775
0.575851
0.582231
0.580114
0.579847
0.579493
0.578939
0.578398
0.577996
0.57775
0.577302
0.576339
0.583998
0.580642
0.580299
0.579937
0.579324
0.578711
0.578272
0.578067
0.577595
0.576849
0.586944
0.581399
0.580996
0.580691
0.579973
0.579261
0.578609
0.578305
0.577957
0.577426
0.591657
0.582268
0.58181
0.581696
0.580916
0.580125
0.579316
0.578744
0.578353
0.577944
0.596985
0.583169
0.582697
0.582686
0.58191
0.581115
0.580297
0.579475
0.578861
0.578715
0.599231
0.584243
0.583517
0.583303
0.5826
0.581884
0.581206
0.580433
0.579401
0.576934
0.583053
0.574583
0.573986
0.57359
0.573336
0.572925
0.572315
0.571867
0.571927
0.570849
0.581038
0.574861
0.573901
0.573461
0.573186
0.572836
0.572441
0.572105
0.571776
0.570371
0.582212
0.574895
0.573869
0.573386
0.573108
0.572778
0.572488
0.572281
0.571841
0.57038
0.583027
0.575188
0.573969
0.573421
0.573103
0.572755
0.572477
0.572316
0.572331
0.571537
0.583756
0.575519
0.57411
0.573502
0.573144
0.572693
0.572416
0.572378
0.572488
0.572525
0.582787
0.575539
0.574197
0.573619
0.573225
0.572658
0.572433
0.572472
0.572547
0.572696
0.581793
0.575633
0.574356
0.573737
0.573298
0.572717
0.572466
0.572541
0.572676
0.572738
0.580585
0.575764
0.574458
0.57387
0.573384
0.572828
0.572558
0.572602
0.572711
0.572561
0.579997
0.575918
0.574815
0.574168
0.573567
0.572986
0.572708
0.57277
0.572707
0.572417
0.57919
0.576522
0.57575
0.574799
0.573832
0.573082
0.572606
0.572267
0.571858
0.571377
0.565847
0.564882
0.564593
0.56465
0.564745
0.564809
0.565432
0.566228
0.566657
0.565693
0.566895
0.565287
0.564966
0.564878
0.564924
0.564964
0.565186
0.565615
0.566282
0.56819
0.567419
0.565745
0.565373
0.56521
0.565116
0.565104
0.565335
0.565878
0.567257
0.571569
0.568989
0.566593
0.565971
0.56571
0.565583
0.565627
0.565906
0.566827
0.569443
0.570829
0.570304
0.567538
0.566751
0.566372
0.566218
0.566388
0.567007
0.568255
0.568567
0.567824
0.570776
0.568317
0.567717
0.56745
0.567299
0.567709
0.568278
0.568029
0.567401
0.564836
0.570929
0.568833
0.568357
0.568244
0.568469
0.568758
0.568519
0.567748
0.566394
0.564065
0.570509
0.569519
0.568989
0.568793
0.569092
0.569138
0.568462
0.567467
0.565676
0.56392
0.570107
0.569909
0.569747
0.569392
0.569336
0.569235
0.568404
0.567045
0.565156
0.564027
0.570453
0.570236
0.569948
0.569914
0.569819
0.569578
0.568376
0.566322
0.564077
0.563981
0.546249
0.546924
0.548219
0.549029
0.549892
0.551504
0.554233
0.558028
0.568187
0.585694
0.546627
0.548194
0.548913
0.549337
0.550059
0.55157
0.55433
0.559277
0.571809
0.589887
0.546671
0.54862
0.54929
0.549689
0.550356
0.55197
0.555391
0.563689
0.580882
0.586466
0.546805
0.548875
0.549571
0.550067
0.550967
0.553158
0.558664
0.573383
0.578764
0.57712
0.547445
0.549184
0.549911
0.550691
0.552267
0.556345
0.566691
0.575227
0.575502
0.561401
0.548449
0.549481
0.550406
0.551931
0.554861
0.561231
0.571695
0.57455
0.571494
0.554083
0.54882
0.549852
0.550997
0.553075
0.557702
0.565518
0.573013
0.573841
0.565592
0.551008
0.550628
0.550521
0.552207
0.554897
0.559381
0.566685
0.572868
0.573222
0.564421
0.550015
0.552016
0.550662
0.553313
0.556516
0.560399
0.566488
0.572261
0.572255
0.563896
0.549498
0.550558
0.551144
0.555147
0.558038
0.561112
0.564708
0.56994
0.570144
0.563155
0.549132
0.68642
0.682672
0.653168
0.633355
0.638928
0.633847
0.638993
0.714498
0.68751
0.685851
0.716666
0.699965
0.65233
0.635798
0.652036
0.661184
0.68219
0.74717
0.70125
0.693063
0.678808
0.654178
0.630141
0.649395
0.674172
0.679732
0.704204
0.759966
0.73574
0.699995
0.700578
0.635054
0.643138
0.677014
0.693286
0.714092
0.768492
0.782057
0.750139
0.695745
0.728446
0.686528
0.711911
0.732602
0.749347
0.772955
0.778938
0.765399
0.704242
0.699413
0.743134
0.720294
0.726613
0.734902
0.735535
0.730638
0.700102
0.672009
0.658206
0.689221
0.751896
0.665179
0.650659
0.643971
0.643152
0.641524
0.647474
0.644921
0.666897
0.65849
0.768373
0.705338
0.676122
0.643743
0.647116
0.648325
0.650274
0.641478
0.651641
0.642032
0.78063
0.724068
0.716117
0.703021
0.675274
0.664257
0.648419
0.64215
0.651634
0.645297
0.782558
0.739008
0.724956
0.720062
0.696254
0.668157
0.652619
0.651478
0.660241
0.652991
1.01041
1.01146
1.01236
1.01062
1.00946
1.01339
1.03354
1.04695
1.05116
1.05248
1.01179
1.01249
1.01221
1.01112
1.01327
1.02734
1.04231
1.04654
1.04338
1.05323
1.01282
1.01276
1.01247
1.01281
1.01947
1.03593
1.04608
1.04828
1.05438
1.05484
1.01327
1.01329
1.0134
1.01524
1.02249
1.03566
1.04558
1.05235
1.05382
1.05122
1.01395
1.01401
1.0144
1.01661
1.02289
1.03379
1.04171
1.04699
1.04529
1.04103
1.01482
1.01499
1.01632
1.01909
1.02373
1.02836
1.0363
1.03601
1.03536
1.03511
1.01638
1.01691
1.01842
1.02042
1.02383
1.02526
1.02896
1.03025
1.03353
1.03344
1.01741
1.01814
1.0212
1.02957
1.02811
1.02765
1.0284
1.0301
1.0343
1.03118
1.01903
1.02327
1.03143
1.03339
1.03409
1.0324
1.03359
1.03141
1.02769
1.02537
1.01963
1.02485
1.03031
1.03152
1.03426
1.03458
1.03312
1.02994
1.02827
1.02803
1.05426
1.05233
1.05223
1.05112
1.05057
1.05023
1.05096
1.05451
1.06609
1.08011
1.05275
1.05246
1.05227
1.05182
1.05191
1.05335
1.05769
1.06926
1.07954
1.08286
1.05296
1.05306
1.0535
1.05458
1.05693
1.06286
1.07582
1.08592
1.08914
1.08505
1.05424
1.05526
1.05775
1.06247
1.07177
1.08427
1.09395
1.09828
1.09919
1.09004
1.05843
1.06218
1.06975
1.08002
1.08966
1.09822
1.10353
1.10557
1.10584
1.09798
1.072
1.07983
1.08869
1.09389
1.10026
1.10382
1.10736
1.10847
1.10712
1.09962
1.0862
1.09156
1.09436
1.09598
1.09777
1.10259
1.10668
1.10894
1.10728
1.10039
1.09181
1.09313
1.09352
1.09216
1.09179
1.10037
1.10542
1.10904
1.10643
1.10241
1.09254
1.09264
1.09001
1.08845
1.08918
1.09975
1.1052
1.10875
1.10545
1.10416
1.08969
1.09186
1.08856
1.08595
1.08761
1.0996
1.10382
1.10772
1.10619
1.10761
1.0972
1.10425
1.10725
1.10736
1.1059
1.10318
1.09989
1.09877
1.09772
1.09538
1.09149
1.10024
1.10647
1.10751
1.10637
1.10452
1.10144
1.09945
1.09874
1.09719
1.08389
1.09083
1.10231
1.10665
1.10654
1.10505
1.10337
1.1009
1.09975
1.09878
1.07791
1.0813
1.08947
1.10019
1.10402
1.10466
1.10389
1.10289
1.10105
1.0999
1.07441
1.07618
1.07874
1.08431
1.09361
1.09973
1.10368
1.10361
1.10228
1.10076
1.07306
1.07381
1.07561
1.07898
1.08688
1.09634
1.10231
1.10389
1.1031
1.10191
1.07318
1.07359
1.07491
1.07755
1.08226
1.09186
1.10003
1.10394
1.10401
1.10299
1.07461
1.07434
1.07501
1.07662
1.07938
1.08571
1.09673
1.10293
1.10453
1.10357
1.07739
1.07593
1.07586
1.07649
1.07812
1.08184
1.09172
1.1005
1.10462
1.1039
1.0852
1.07804
1.07674
1.07698
1.07805
1.08014
1.08644
1.09714
1.10401
1.10401
0.980673
0.973522
0.984007
0.99936
1.00596
1.00911
1.01047
1.00944
1.0045
0.994087
0.983381
0.966614
0.957745
0.96268
0.974933
0.987146
0.994107
0.993025
0.988351
0.982254
0.999771
0.978139
0.957991
0.948343
0.948027
0.951599
0.956987
0.9612
0.962394
0.967172
1.01193
0.999139
0.972182
0.94975
0.942616
0.941244
0.942344
0.945072
0.951986
0.966288
1.01225
1.00167
0.97995
0.95498
0.944552
0.941421
0.941919
0.945039
0.955454
0.970796
1.00815
0.99623
0.980213
0.964419
0.953658
0.947933
0.948679
0.954562
0.967826
0.984957
1.00285
0.996452
0.987294
0.978407
0.971491
0.968497
0.971326
0.979248
0.990416
0.995061
1.00321
1.0005
0.997852
0.994022
0.991509
0.990882
0.993331
0.997356
0.998786
0.996971
1.00289
1.00101
0.999552
0.997564
0.996616
0.996329
0.996852
0.997351
0.997096
0.994831
1.00114
0.999308
0.996298
0.99344
0.992219
0.991886
0.991859
0.991111
0.988549
0.98392
0.996192
0.988338
0.989181
0.995617
1.00197
1.0046
1.00639
1.00712
1.00658
1.00336
0.996902
0.986944
0.977508
0.970921
0.974607
0.983019
0.992157
0.997217
0.996876
0.990601
1.00199
0.994626
0.980889
0.968746
0.958186
0.954461
0.957422
0.963486
0.965555
0.961861
1.00754
1.00445
0.995235
0.977684
0.959377
0.946942
0.942525
0.942844
0.943651
0.944474
1.00933
1.00639
0.999724
0.987365
0.966427
0.948126
0.941401
0.938915
0.939144
0.941481
1.00849
1.005
0.99902
0.98645
0.968638
0.952678
0.94497
0.941175
0.941446
0.944662
1.00648
1.00308
0.995542
0.986572
0.974272
0.964887
0.956638
0.952131
0.952346
0.95691
1.00473
1.00233
0.998122
0.992752
0.987891
0.982969
0.977205
0.973809
0.975272
0.978177
1.00275
1.00195
1.00062
0.998524
0.995765
0.994174
0.99225
0.989914
0.990529
0.989738
0.999412
0.999784
0.999377
0.997932
0.995726
0.994085
0.992352
0.991359
0.990679
0.989508
1.00061
0.995574
0.99395
0.995378
0.998943
1.0012
1.00228
1.00354
1.00396
1.00343
1.00035
0.995248
0.989112
0.982662
0.978716
0.981144
0.986592
0.99339
0.996242
0.994317
1.00133
0.998984
0.992887
0.983179
0.974244
0.965124
0.960027
0.962473
0.966963
0.963424
1.00278
1.00242
0.999958
0.992471
0.979008
0.965484
0.952508
0.944582
0.943186
0.941251
1.00287
1.00318
1.0018
0.997869
0.989372
0.97328
0.954275
0.942197
0.937814
0.935316
1.00383
1.00309
1.00154
0.997826
0.990563
0.976244
0.957581
0.944048
0.939077
0.93609
1.00409
1.00303
1.00055
0.996803
0.989347
0.97609
0.961993
0.951939
0.946069
0.942909
1.00327
1.00256
1.00084
0.997162
0.991464
0.983579
0.975937
0.96908
0.963
0.956126
1.00144
1.00114
1.00052
0.999339
0.997321
0.993939
0.990722
0.985185
0.980431
0.974621
0.997279
0.997592
0.998245
0.998282
0.997557
0.996218
0.9942
0.990596
0.988721
0.985998
1.00051
0.997494
0.996198
0.996348
0.997273
0.998544
0.999234
0.999876
1.00068
1.00091
1.00024
0.997117
0.993356
0.988549
0.983845
0.9824
0.983703
0.986569
0.992134
0.991179
1.0001
0.998998
0.995848
0.989267
0.982145
0.974889
0.966552
0.961574
0.963897
0.961192
1.00009
1.00027
0.999429
0.995646
0.986935
0.976288
0.96479
0.953499
0.94723
0.9403
0.998614
1.00005
0.999883
0.998569
0.994635
0.984876
0.969461
0.954874
0.943435
0.935564
0.998524
1.00011
0.999873
0.998792
0.995892
0.989005
0.974817
0.959265
0.944413
0.936454
1.00002
1.00047
0.999929
0.998524
0.995484
0.988776
0.977116
0.962348
0.949344
0.942376
1.00049
1.00035
0.999837
0.998511
0.996056
0.990989
0.983473
0.971415
0.962272
0.953653
0.999266
0.999141
0.998789
0.998139
0.997257
0.995827
0.992716
0.985344
0.979588
0.966994
0.995336
0.994982
0.995403
0.996025
0.996134
0.995815
0.994884
0.991674
0.988247
0.979824
0.998901
0.99662
0.996066
0.996367
0.996552
0.996727
0.996916
0.997086
0.997313
0.997823
0.998655
0.996305
0.993882
0.990096
0.986869
0.984894
0.983235
0.983599
0.985361
0.98421
0.998532
0.997506
0.995069
0.99037
0.98445
0.978663
0.973097
0.963995
0.961765
0.95661
0.998196
0.998215
0.997546
0.994546
0.987247
0.979271
0.972337
0.960809
0.953442
0.942361
0.996499
0.997829
0.997737
0.996773
0.993529
0.984968
0.975652
0.963834
0.954658
0.94208
0.995825
0.997492
0.997641
0.997105
0.995173
0.989699
0.979451
0.968826
0.957861
0.94549
0.996404
0.997742
0.99772
0.99706
0.995184
0.991221
0.983825
0.972303
0.961071
0.948624
0.997214
0.99782
0.997651
0.996843
0.995535
0.993643
0.989866
0.980967
0.967971
0.954619
0.996774
0.996879
0.996489
0.995857
0.995263
0.994672
0.993419
0.989578
0.982445
0.966134
0.993882
0.99315
0.992168
0.992377
0.993217
0.993671
0.993406
0.992111
0.989148
0.978272
0.996362
0.994838
0.99501
0.995026
0.994948
0.994959
0.995017
0.994916
0.994457
0.994453
0.996497
0.994566
0.992194
0.990431
0.988312
0.987082
0.985396
0.982076
0.981032
0.976987
0.996551
0.995391
0.992873
0.989487
0.984018
0.979451
0.975627
0.966888
0.96236
0.952336
0.996421
0.996147
0.99512
0.992032
0.985117
0.979164
0.974556
0.964719
0.957674
0.945488
0.995416
0.99583
0.995525
0.994336
0.990611
0.982171
0.976458
0.967495
0.959886
0.94739
0.994017
0.995302
0.995358
0.99478
0.992753
0.987017
0.979045
0.971383
0.964704
0.955294
0.994285
0.99538
0.995374
0.99475
0.992912
0.989726
0.983701
0.975225
0.966975
0.958042
0.994796
0.995347
0.995227
0.99448
0.993405
0.992245
0.989838
0.98392
0.972751
0.960356
0.994518
0.99453
0.993725
0.99286
0.992716
0.992409
0.991701
0.989519
0.983747
0.96702
0.992808
0.991931
0.989688
0.988859
0.989155
0.9906
0.991061
0.990371
0.988076
0.977133
0.992934
0.992634
0.992788
0.992886
0.992853
0.992976
0.993316
0.993192
0.992298
0.991616
0.993808
0.992387
0.990676
0.990488
0.990106
0.989397
0.988026
0.985148
0.980449
0.974229
0.994278
0.992859
0.990209
0.987579
0.983423
0.980193
0.976513
0.968235
0.962364
0.949542
0.994314
0.99371
0.991661
0.988267
0.982536
0.977594
0.973815
0.965171
0.9582
0.945579
0.993952
0.993617
0.992711
0.990382
0.98493
0.978455
0.974542
0.967013
0.959993
0.947349
0.992999
0.993131
0.992647
0.99137
0.988787
0.982544
0.976522
0.97063
0.965377
0.955894
0.992571
0.992813
0.99243
0.991498
0.989837
0.987059
0.981398
0.973714
0.967892
0.960173
0.992604
0.99261
0.992018
0.991228
0.990603
0.989724
0.987654
0.982109
0.971853
0.961945
0.992331
0.991933
0.990272
0.989406
0.989469
0.989596
0.989226
0.987375
0.981758
0.966596
0.991375
0.989892
0.987084
0.985979
0.986048
0.987234
0.988314
0.98793
0.98587
0.975111
0.987964
0.989767
0.990354
0.9906
0.990734
0.991139
0.991634
0.991544
0.990284
0.988753
0.990261
0.989774
0.9895
0.989604
0.989543
0.989358
0.988648
0.986877
0.982855
0.973634
0.991393
0.989827
0.987704
0.985989
0.983772
0.981442
0.977739
0.970069
0.963954
0.949019
0.991814
0.990313
0.987298
0.984573
0.980192
0.97588
0.972186
0.963911
0.957019
0.943648
0.99166
0.990549
0.988073
0.985425
0.980596
0.975595
0.972214
0.964924
0.957818
0.94497
0.99111
0.990295
0.988188
0.986346
0.982926
0.977707
0.973444
0.968358
0.963143
0.953292
0.990504
0.989305
0.98776
0.986284
0.985025
0.982888
0.977951
0.971142
0.965974
0.958254
0.990066
0.9884
0.98658
0.985797
0.985766
0.985573
0.984133
0.978915
0.969165
0.960219
0.989843
0.987945
0.98544
0.984876
0.98499
0.985604
0.985652
0.984193
0.978564
0.964028
0.989304
0.987063
0.984147
0.983226
0.983296
0.98435
0.985101
0.984837
0.982919
0.972194
0.983834
0.986308
0.987564
0.988156
0.988653
0.989484
0.990164
0.990054
0.988116
0.986138
0.985645
0.987021
0.987477
0.987959
0.988246
0.9884
0.988075
0.986778
0.983342
0.973266
0.987801
0.98701
0.985641
0.985366
0.984888
0.983508
0.980057
0.974016
0.96861
0.953842
0.988506
0.986398
0.983932
0.982086
0.978379
0.974733
0.970819
0.962209
0.955334
0.94183
0.988576
0.986495
0.983871
0.981086
0.976982
0.97284
0.969432
0.961977
0.954456
0.941506
0.988412
0.986299
0.983664
0.981382
0.977887
0.973607
0.970235
0.965283
0.95943
0.947893
0.987738
0.985285
0.983087
0.981432
0.979874
0.977128
0.972988
0.967741
0.963366
0.955382
0.986162
0.983275
0.981558
0.980935
0.980266
0.979471
0.977641
0.972246
0.96469
0.957521
0.985873
0.982202
0.980252
0.979845
0.979888
0.980028
0.979813
0.978059
0.97157
0.95997
0.986352
0.982316
0.980209
0.979872
0.980069
0.98069
0.980762
0.98029
0.978039
0.967097
0.982154
0.982337
0.98407
0.985797
0.98688
0.988406
0.989003
0.988743
0.985631
0.983706
0.983555
0.984683
0.985255
0.985936
0.986497
0.987237
0.98716
0.986415
0.983061
0.972886
0.984453
0.984514
0.984238
0.984626
0.984522
0.983703
0.981331
0.977519
0.97303
0.960735
0.984997
0.983499
0.981715
0.980198
0.977667
0.973749
0.969307