/*--------------------------------*- C++ -*----------------------------------*\
  =========                 |
  \\      /  F ield         | OpenFOAM: The Open Source CFD Toolbox
   \\    /   O peration     | Website:  https://openfoam.org
    \\  /    A nd           | Version:  9
     \\/     M anipulation  |
\*---------------------------------------------------------------------------*/
FoamFile
{
    format      ascii;
    class       volScalarField;
    location    "80";
    object      thermo:mu.gas;
}
// * * * * * * * * * * * * * * * * * * * * * * * * * * * * * * * * * * * * * //

dimensions      [1 -1 -1 0 0 0 0];

internalField   nonuniform List<scalar> 
137980
(
1.57672e-05
1.57681e-05
1.57732e-05
1.57828e-05
1.57951e-05
1.58019e-05
1.58036e-05
1.58023e-05
1.57998e-05
1.57999e-05
1.57631e-05
1.5765e-05
1.57722e-05
1.5782e-05
1.57925e-05
1.57997e-05
1.58028e-05
1.58029e-05
1.58014e-05
1.58003e-05
1.57585e-05
1.57619e-05
1.57718e-05
1.57802e-05
1.57892e-05
1.57945e-05
1.57991e-05
1.58015e-05
1.58009e-05
1.58002e-05
1.57568e-05
1.57604e-05
1.57703e-05
1.57778e-05
1.57853e-05
1.57901e-05
1.57923e-05
1.57973e-05
1.57997e-05
1.57996e-05
1.57568e-05
1.57598e-05
1.57688e-05
1.57746e-05
1.57797e-05
1.57858e-05
1.57882e-05
1.57897e-05
1.57939e-05
1.5796e-05
1.57576e-05
1.57592e-05
1.57658e-05
1.57717e-05
1.57745e-05
1.57799e-05
1.57841e-05
1.57858e-05
1.57862e-05
1.57869e-05
1.57593e-05
1.57596e-05
1.57626e-05
1.57686e-05
1.57716e-05
1.57737e-05
1.57773e-05
1.57799e-05
1.57818e-05
1.57818e-05
1.57597e-05
1.57603e-05
1.57615e-05
1.57652e-05
1.57687e-05
1.57701e-05
1.57715e-05
1.57726e-05
1.57731e-05
1.57736e-05
1.57599e-05
1.57604e-05
1.57617e-05
1.57643e-05
1.57671e-05
1.5768e-05
1.57686e-05
1.57691e-05
1.57692e-05
1.57688e-05
1.57599e-05
1.5761e-05
1.57632e-05
1.57645e-05
1.57663e-05
1.57673e-05
1.57677e-05
1.5768e-05
1.57681e-05
1.57683e-05
1.57683e-05
1.57701e-05
1.57766e-05
1.57852e-05
1.57952e-05
1.58011e-05
1.58019e-05
1.57991e-05
1.5797e-05
1.57989e-05
1.5765e-05
1.57684e-05
1.57763e-05
1.57844e-05
1.57924e-05
1.57988e-05
1.58013e-05
1.57999e-05
1.57977e-05
1.57989e-05
1.57615e-05
1.57669e-05
1.57757e-05
1.57826e-05
1.57891e-05
1.5794e-05
1.57992e-05
1.58e-05
1.57993e-05
1.57992e-05
1.57599e-05
1.57651e-05
1.57738e-05
1.57796e-05
1.57858e-05
1.57897e-05
1.57958e-05
1.57989e-05
1.57987e-05
1.57989e-05
1.57594e-05
1.57636e-05
1.57713e-05
1.57759e-05
1.57808e-05
1.57863e-05
1.579e-05
1.57965e-05
1.57982e-05
1.57986e-05
1.57594e-05
1.57616e-05
1.57677e-05
1.5773e-05
1.5776e-05
1.57816e-05
1.57855e-05
1.5791e-05
1.57961e-05
1.57974e-05
1.57597e-05
1.57605e-05
1.57634e-05
1.57694e-05
1.57725e-05
1.57757e-05
1.57798e-05
1.57844e-05
1.57915e-05
1.57943e-05
1.57596e-05
1.57602e-05
1.57615e-05
1.5765e-05
1.57689e-05
1.57709e-05
1.57732e-05
1.57759e-05
1.57793e-05
1.57856e-05
1.57599e-05
1.57598e-05
1.57607e-05
1.57627e-05
1.57661e-05
1.5768e-05
1.57691e-05
1.57702e-05
1.57711e-05
1.57732e-05
1.57597e-05
1.57603e-05
1.57614e-05
1.57626e-05
1.57645e-05
1.5766e-05
1.5767e-05
1.57678e-05
1.57686e-05
1.57681e-05
1.5769e-05
1.57722e-05
1.5777e-05
1.57847e-05
1.57933e-05
1.57976e-05
1.57978e-05
1.57942e-05
1.57917e-05
1.57959e-05
1.57668e-05
1.57713e-05
1.57769e-05
1.57839e-05
1.57893e-05
1.57953e-05
1.57974e-05
1.57943e-05
1.57927e-05
1.57956e-05
1.57648e-05
1.57702e-05
1.57763e-05
1.57821e-05
1.57868e-05
1.57929e-05
1.57966e-05
1.57951e-05
1.57934e-05
1.57955e-05
1.57634e-05
1.57685e-05
1.57745e-05
1.5779e-05
1.57845e-05
1.57904e-05
1.57953e-05
1.5796e-05
1.5794e-05
1.57953e-05
1.57621e-05
1.57662e-05
1.57718e-05
1.57756e-05
1.57809e-05
1.57875e-05
1.5794e-05
1.57955e-05
1.57953e-05
1.57953e-05
1.57606e-05
1.57632e-05
1.57683e-05
1.57732e-05
1.57765e-05
1.57833e-05
1.5791e-05
1.57947e-05
1.57949e-05
1.57952e-05
1.57599e-05
1.57609e-05
1.57638e-05
1.57698e-05
1.57734e-05
1.57782e-05
1.5787e-05
1.5793e-05
1.57945e-05
1.57948e-05
1.57596e-05
1.57601e-05
1.57615e-05
1.57651e-05
1.57697e-05
1.57727e-05
1.5779e-05
1.57893e-05
1.57929e-05
1.5794e-05
1.57605e-05
1.57598e-05
1.57603e-05
1.57624e-05
1.57664e-05
1.57688e-05
1.57719e-05
1.5779e-05
1.57874e-05
1.57904e-05
1.576e-05
1.57603e-05
1.57609e-05
1.57616e-05
1.57641e-05
1.57666e-05
1.57684e-05
1.57704e-05
1.57731e-05
1.57738e-05
1.57693e-05
1.57727e-05
1.57767e-05
1.5782e-05
1.57869e-05
1.57917e-05
1.57928e-05
1.57908e-05
1.57874e-05
1.5803e-05
1.57682e-05
1.57719e-05
1.57762e-05
1.57812e-05
1.57867e-05
1.57911e-05
1.57914e-05
1.57898e-05
1.57881e-05
1.58041e-05
1.5767e-05
1.57711e-05
1.57759e-05
1.57804e-05
1.57861e-05
1.57905e-05
1.57909e-05
1.57897e-05
1.57889e-05
1.5804e-05
1.57654e-05
1.57695e-05
1.57744e-05
1.57785e-05
1.57852e-05
1.57899e-05
1.57909e-05
1.57896e-05
1.57889e-05
1.58032e-05
1.57635e-05
1.57674e-05
1.57722e-05
1.57761e-05
1.57827e-05
1.57892e-05
1.57906e-05
1.57896e-05
1.5789e-05
1.58009e-05
1.57612e-05
1.57643e-05
1.57693e-05
1.57741e-05
1.57795e-05
1.57878e-05
1.57899e-05
1.57899e-05
1.57892e-05
1.57973e-05
1.57601e-05
1.57613e-05
1.57649e-05
1.57713e-05
1.57765e-05
1.57856e-05
1.57889e-05
1.57897e-05
1.57895e-05
1.57941e-05
1.57598e-05
1.57601e-05
1.57619e-05
1.57665e-05
1.57726e-05
1.5781e-05
1.57876e-05
1.57892e-05
1.57893e-05
1.57928e-05
1.5761e-05
1.57599e-05
1.57604e-05
1.5763e-05
1.57686e-05
1.57748e-05
1.57842e-05
1.57877e-05
1.57887e-05
1.57913e-05
1.57609e-05
1.57605e-05
1.57605e-05
1.57616e-05
1.57654e-05
1.57711e-05
1.57791e-05
1.57826e-05
1.57835e-05
1.57821e-05
1.57699e-05
1.5773e-05
1.57765e-05
1.57809e-05
1.57847e-05
1.5786e-05
1.57853e-05
1.57838e-05
1.57906e-05
1.58168e-05
1.57694e-05
1.57729e-05
1.57771e-05
1.57824e-05
1.57852e-05
1.57858e-05
1.57853e-05
1.57858e-05
1.57982e-05
1.58156e-05
1.57686e-05
1.57727e-05
1.57774e-05
1.5783e-05
1.57853e-05
1.57858e-05
1.57855e-05
1.57883e-05
1.58056e-05
1.58147e-05
1.57673e-05
1.57716e-05
1.57766e-05
1.57826e-05
1.57854e-05
1.57863e-05
1.57866e-05
1.57921e-05
1.58087e-05
1.58176e-05
1.57657e-05
1.57701e-05
1.57749e-05
1.57813e-05
1.57852e-05
1.57865e-05
1.57871e-05
1.5793e-05
1.58081e-05
1.58175e-05
1.57629e-05
1.57673e-05
1.57728e-05
1.57788e-05
1.57844e-05
1.57865e-05
1.57875e-05
1.57924e-05
1.58059e-05
1.58155e-05
1.5761e-05
1.57637e-05
1.57692e-05
1.57764e-05
1.57825e-05
1.57861e-05
1.57873e-05
1.5791e-05
1.58004e-05
1.58106e-05
1.57602e-05
1.57611e-05
1.5765e-05
1.57715e-05
1.57801e-05
1.57848e-05
1.57871e-05
1.57893e-05
1.57936e-05
1.58002e-05
1.57608e-05
1.57604e-05
1.57618e-05
1.57669e-05
1.57744e-05
1.57812e-05
1.57862e-05
1.57882e-05
1.57905e-05
1.57952e-05
1.57608e-05
1.57605e-05
1.57608e-05
1.57638e-05
1.57701e-05
1.5778e-05
1.57835e-05
1.57855e-05
1.5786e-05
1.5788e-05
1.57723e-05
1.57731e-05
1.57745e-05
1.57757e-05
1.57776e-05
1.57776e-05
1.57786e-05
1.57831e-05
1.58082e-05
1.58106e-05
1.57742e-05
1.57756e-05
1.57782e-05
1.57786e-05
1.57784e-05
1.57784e-05
1.57822e-05
1.5798e-05
1.58079e-05
1.58075e-05
1.57752e-05
1.57775e-05
1.57793e-05
1.57797e-05
1.57796e-05
1.57817e-05
1.57919e-05
1.58051e-05
1.58091e-05
1.58103e-05
1.57753e-05
1.57779e-05
1.57801e-05
1.57814e-05
1.57827e-05
1.57879e-05
1.58005e-05
1.58086e-05
1.58117e-05
1.58135e-05
1.57751e-05
1.57781e-05
1.57806e-05
1.57822e-05
1.57857e-05
1.57931e-05
1.58052e-05
1.58114e-05
1.58144e-05
1.58188e-05
1.57738e-05
1.57778e-05
1.57815e-05
1.57845e-05
1.57891e-05
1.57978e-05
1.58087e-05
1.58139e-05
1.58183e-05
1.58213e-05
1.57706e-05
1.57765e-05
1.57811e-05
1.57857e-05
1.57916e-05
1.57996e-05
1.58087e-05
1.5814e-05
1.58186e-05
1.58203e-05
1.57661e-05
1.57737e-05
1.57796e-05
1.57853e-05
1.57914e-05
1.57994e-05
1.58078e-05
1.58131e-05
1.58174e-05
1.58148e-05
1.57635e-05
1.57685e-05
1.57764e-05
1.57835e-05
1.57902e-05
1.57983e-05
1.58053e-05
1.58103e-05
1.58141e-05
1.58112e-05
1.57616e-05
1.57645e-05
1.57704e-05
1.57798e-05
1.57877e-05
1.57955e-05
1.58013e-05
1.58048e-05
1.5806e-05
1.58073e-05
1.57702e-05
1.57716e-05
1.57722e-05
1.57745e-05
1.57758e-05
1.57805e-05
1.57948e-05
1.5799e-05
1.57962e-05
1.57952e-05
1.57727e-05
1.57733e-05
1.57742e-05
1.57756e-05
1.57797e-05
1.57908e-05
1.57951e-05
1.57949e-05
1.5792e-05
1.57908e-05
1.57747e-05
1.57751e-05
1.5776e-05
1.57789e-05
1.57876e-05
1.57936e-05
1.57945e-05
1.57939e-05
1.57925e-05
1.57925e-05
1.57758e-05
1.57764e-05
1.57789e-05
1.57843e-05
1.57926e-05
1.57944e-05
1.57947e-05
1.57945e-05
1.57954e-05
1.5802e-05
1.57767e-05
1.57784e-05
1.57816e-05
1.5788e-05
1.57935e-05
1.57951e-05
1.57959e-05
1.57979e-05
1.581e-05
1.58159e-05
1.57775e-05
1.57799e-05
1.57852e-05
1.57909e-05
1.57954e-05
1.57963e-05
1.58003e-05
1.58107e-05
1.58163e-05
1.58178e-05
1.57778e-05
1.57819e-05
1.57861e-05
1.57924e-05
1.5796e-05
1.57993e-05
1.58073e-05
1.58142e-05
1.58158e-05
1.58098e-05
1.57776e-05
1.57822e-05
1.57872e-05
1.57932e-05
1.57987e-05
1.58036e-05
1.58108e-05
1.58141e-05
1.58141e-05
1.58003e-05
1.57764e-05
1.57819e-05
1.57871e-05
1.57929e-05
1.57989e-05
1.58047e-05
1.58109e-05
1.58138e-05
1.58128e-05
1.58015e-05
1.5774e-05
1.57819e-05
1.57869e-05
1.57923e-05
1.57987e-05
1.58042e-05
1.58099e-05
1.58125e-05
1.58114e-05
1.58064e-05
1.57854e-05
1.57858e-05
1.57858e-05
1.57858e-05
1.57853e-05
1.57847e-05
1.57838e-05
1.57833e-05
1.5783e-05
1.57827e-05
1.57827e-05
1.57842e-05
1.57847e-05
1.57851e-05
1.5785e-05
1.57845e-05
1.5784e-05
1.57836e-05
1.57828e-05
1.57826e-05
1.57816e-05
1.57841e-05
1.57846e-05
1.57851e-05
1.57861e-05
1.57892e-05
1.57923e-05
1.57936e-05
1.57942e-05
1.57948e-05
1.57809e-05
1.5784e-05
1.57848e-05
1.57888e-05
1.57965e-05
1.58001e-05
1.58016e-05
1.58022e-05
1.58027e-05
1.58027e-05
1.57808e-05
1.57838e-05
1.57885e-05
1.57974e-05
1.58013e-05
1.58024e-05
1.58026e-05
1.58026e-05
1.58023e-05
1.58019e-05
1.57809e-05
1.57849e-05
1.57932e-05
1.58003e-05
1.58021e-05
1.5802e-05
1.58003e-05
1.57971e-05
1.57911e-05
1.57875e-05
1.57808e-05
1.57857e-05
1.57952e-05
1.58011e-05
1.58023e-05
1.58022e-05
1.58018e-05
1.57993e-05
1.5792e-05
1.57814e-05
1.57806e-05
1.57856e-05
1.5795e-05
1.58013e-05
1.58033e-05
1.5804e-05
1.58057e-05
1.58055e-05
1.58023e-05
1.57871e-05
1.57796e-05
1.57849e-05
1.57941e-05
1.58011e-05
1.58035e-05
1.58047e-05
1.58081e-05
1.58092e-05
1.58092e-05
1.58021e-05
1.57803e-05
1.57858e-05
1.57944e-05
1.58004e-05
1.5803e-05
1.58045e-05
1.58078e-05
1.58095e-05
1.58094e-05
1.58081e-05
1.57829e-05
1.57824e-05
1.57822e-05
1.57821e-05
1.57823e-05
1.57824e-05
1.57822e-05
1.57813e-05
1.578e-05
1.5779e-05
1.57879e-05
1.57872e-05
1.57884e-05
1.57889e-05
1.57898e-05
1.57894e-05
1.57875e-05
1.57867e-05
1.57854e-05
1.57835e-05
1.57922e-05
1.57923e-05
1.57928e-05
1.5793e-05
1.57919e-05
1.5791e-05
1.57902e-05
1.57886e-05
1.57877e-05
1.57864e-05
1.57944e-05
1.57948e-05
1.57953e-05
1.57948e-05
1.57946e-05
1.57924e-05
1.57883e-05
1.57862e-05
1.57831e-05
1.5782e-05
1.57949e-05
1.57957e-05
1.57962e-05
1.57971e-05
1.57965e-05
1.57938e-05
1.5791e-05
1.57874e-05
1.57809e-05
1.57763e-05
1.57946e-05
1.57955e-05
1.57971e-05
1.57989e-05
1.57997e-05
1.57993e-05
1.57967e-05
1.57914e-05
1.57858e-05
1.57771e-05
1.57937e-05
1.57952e-05
1.57964e-05
1.57995e-05
1.58015e-05
1.58031e-05
1.58031e-05
1.58022e-05
1.57981e-05
1.57871e-05
1.57912e-05
1.57946e-05
1.5796e-05
1.57988e-05
1.58016e-05
1.5804e-05
1.58045e-05
1.5805e-05
1.58037e-05
1.57983e-05
1.57864e-05
1.57926e-05
1.57949e-05
1.57982e-05
1.58002e-05
1.58037e-05
1.58044e-05
1.58051e-05
1.58053e-05
1.58023e-05
1.57879e-05
1.57926e-05
1.57944e-05
1.57973e-05
1.57983e-05
1.58015e-05
1.58e-05
1.57963e-05
1.57969e-05
1.57977e-05
1.57828e-05
1.5781e-05
1.57805e-05
1.57797e-05
1.57794e-05
1.57786e-05
1.57783e-05
1.57777e-05
1.57775e-05
1.57774e-05
1.57884e-05
1.5785e-05
1.57838e-05
1.57822e-05
1.57813e-05
1.57798e-05
1.57789e-05
1.57779e-05
1.57771e-05
1.57763e-05
1.57951e-05
1.57928e-05
1.57908e-05
1.57884e-05
1.57859e-05
1.57831e-05
1.57811e-05
1.578e-05
1.5778e-05
1.57767e-05
1.57983e-05
1.57977e-05
1.57955e-05
1.5794e-05
1.57901e-05
1.57855e-05
1.57832e-05
1.57812e-05
1.57783e-05
1.57754e-05
1.57997e-05
1.58002e-05
1.57991e-05
1.57975e-05
1.5796e-05
1.57935e-05
1.57903e-05
1.57869e-05
1.5783e-05
1.57785e-05
1.57993e-05
1.58003e-05
1.5801e-05
1.58004e-05
1.58e-05
1.57997e-05
1.57988e-05
1.57961e-05
1.57929e-05
1.57854e-05
1.57934e-05
1.57986e-05
1.58003e-05
1.58007e-05
1.58012e-05
1.5802e-05
1.58021e-05
1.58015e-05
1.57994e-05
1.57949e-05
1.57861e-05
1.57945e-05
1.57991e-05
1.58e-05
1.58011e-05
1.58021e-05
1.58022e-05
1.5802e-05
1.58004e-05
1.57972e-05
1.57819e-05
1.57894e-05
1.57957e-05
1.57985e-05
1.57996e-05
1.58e-05
1.57998e-05
1.57981e-05
1.57933e-05
1.57939e-05
1.57832e-05
1.57905e-05
1.57952e-05
1.57974e-05
1.57967e-05
1.5797e-05
1.57957e-05
1.57897e-05
1.57848e-05
1.57865e-05
1.57833e-05
1.57843e-05
1.57858e-05
1.57885e-05
1.579e-05
1.57905e-05
1.57896e-05
1.5788e-05
1.57868e-05
1.57862e-05
1.57826e-05
1.57806e-05
1.57797e-05
1.57785e-05
1.5778e-05
1.57774e-05
1.57767e-05
1.57764e-05
1.57757e-05
1.57755e-05
1.57882e-05
1.57839e-05
1.57822e-05
1.57804e-05
1.57795e-05
1.57785e-05
1.5778e-05
1.57776e-05
1.57774e-05
1.57774e-05
1.57928e-05
1.57888e-05
1.57869e-05
1.57844e-05
1.57827e-05
1.57819e-05
1.57818e-05
1.57819e-05
1.57822e-05
1.57835e-05
1.57963e-05
1.57943e-05
1.57919e-05
1.57896e-05
1.5788e-05
1.57869e-05
1.57865e-05
1.57867e-05
1.5787e-05
1.57877e-05
1.57985e-05
1.57977e-05
1.57969e-05
1.57951e-05
1.57939e-05
1.5793e-05
1.57927e-05
1.57924e-05
1.57916e-05
1.5793e-05
1.57965e-05
1.57988e-05
1.57992e-05
1.57991e-05
1.5799e-05
1.57986e-05
1.57987e-05
1.57988e-05
1.57981e-05
1.57964e-05
1.57881e-05
1.57963e-05
1.5799e-05
1.57999e-05
1.58003e-05
1.58006e-05
1.58007e-05
1.58004e-05
1.57992e-05
1.57972e-05
1.57838e-05
1.57889e-05
1.57965e-05
1.57992e-05
1.58e-05
1.58001e-05
1.57999e-05
1.5799e-05
1.5796e-05
1.57952e-05
1.5782e-05
1.57863e-05
1.57953e-05
1.57981e-05
1.57977e-05
1.57974e-05
1.5796e-05
1.57919e-05
1.57886e-05
1.57898e-05
1.57989e-05
1.58005e-05
1.57998e-05
1.57991e-05
1.57982e-05
1.58027e-05
1.58078e-05
1.58156e-05
1.58196e-05
1.58281e-05
1.57988e-05
1.58014e-05
1.58024e-05
1.5804e-05
1.58067e-05
1.58087e-05
1.58118e-05
1.58151e-05
1.58141e-05
1.57955e-05
1.57985e-05
1.58008e-05
1.58032e-05
1.58047e-05
1.58068e-05
1.58077e-05
1.5809e-05
1.58007e-05
1.57846e-05
1.57784e-05
1.57978e-05
1.5799e-05
1.5802e-05
1.58031e-05
1.58035e-05
1.58009e-05
1.57931e-05
1.57832e-05
1.57792e-05
1.57777e-05
1.57977e-05
1.57971e-05
1.57967e-05
1.57961e-05
1.57939e-05
1.579e-05
1.57849e-05
1.57817e-05
1.578e-05
1.57791e-05
1.57989e-05
1.57971e-05
1.57964e-05
1.57946e-05
1.57922e-05
1.57888e-05
1.57851e-05
1.57827e-05
1.57819e-05
1.5782e-05
1.58e-05
1.57981e-05
1.57972e-05
1.57956e-05
1.57932e-05
1.579e-05
1.57869e-05
1.57861e-05
1.57861e-05
1.5787e-05
1.57978e-05
1.57991e-05
1.57992e-05
1.57983e-05
1.57961e-05
1.57931e-05
1.57899e-05
1.5788e-05
1.5789e-05
1.57896e-05
1.57907e-05
1.57994e-05
1.57993e-05
1.57996e-05
1.57996e-05
1.57987e-05
1.57969e-05
1.57936e-05
1.57915e-05
1.5792e-05
1.57895e-05
1.57987e-05
1.58004e-05
1.5801e-05
1.58004e-05
1.57998e-05
1.57986e-05
1.57965e-05
1.57931e-05
1.57889e-05
1.57951e-05
1.57933e-05
1.57944e-05
1.57974e-05
1.58019e-05
1.58045e-05
1.58026e-05
1.57999e-05
1.58003e-05
1.58062e-05
1.57904e-05
1.57911e-05
1.57937e-05
1.57993e-05
1.58045e-05
1.58071e-05
1.5806e-05
1.5804e-05
1.58026e-05
1.58023e-05
1.57888e-05
1.57906e-05
1.57957e-05
1.58017e-05
1.58053e-05
1.58084e-05
1.58087e-05
1.58048e-05
1.58017e-05
1.57989e-05
1.57881e-05
1.57921e-05
1.57995e-05
1.58022e-05
1.58051e-05
1.58073e-05
1.58069e-05
1.5802e-05
1.57963e-05
1.57941e-05
1.57882e-05
1.57973e-05
1.58001e-05
1.58014e-05
1.58024e-05
1.58041e-05
1.58022e-05
1.5795e-05
1.57905e-05
1.57882e-05
1.57894e-05
1.57992e-05
1.58002e-05
1.58001e-05
1.57997e-05
1.58002e-05
1.57974e-05
1.57905e-05
1.57871e-05
1.57861e-05
1.57899e-05
1.58e-05
1.58002e-05
1.57997e-05
1.57986e-05
1.57984e-05
1.57968e-05
1.57905e-05
1.57878e-05
1.57863e-05
1.57888e-05
1.58e-05
1.58004e-05
1.58001e-05
1.57995e-05
1.5799e-05
1.57977e-05
1.57914e-05
1.57889e-05
1.5788e-05
1.57844e-05
1.57964e-05
1.57999e-05
1.58008e-05
1.58012e-05
1.5801e-05
1.58004e-05
1.57946e-05
1.57913e-05
1.57907e-05
1.57826e-05
1.57915e-05
1.57982e-05
1.58011e-05
1.58016e-05
1.58023e-05
1.58025e-05
1.57986e-05
1.57926e-05
1.57884e-05
1.58023e-05
1.5801e-05
1.58012e-05
1.58021e-05
1.58041e-05
1.58086e-05
1.58124e-05
1.5814e-05
1.58143e-05
1.58142e-05
1.58008e-05
1.58007e-05
1.58011e-05
1.58028e-05
1.58074e-05
1.58137e-05
1.58158e-05
1.5816e-05
1.5816e-05
1.58161e-05
1.58007e-05
1.58008e-05
1.58026e-05
1.58074e-05
1.58128e-05
1.5816e-05
1.58166e-05
1.58162e-05
1.58158e-05
1.58144e-05
1.58002e-05
1.58019e-05
1.58077e-05
1.58116e-05
1.58147e-05
1.58167e-05
1.58164e-05
1.58154e-05
1.58134e-05
1.58108e-05
1.58008e-05
1.58057e-05
1.58101e-05
1.58126e-05
1.5815e-05
1.58163e-05
1.58153e-05
1.58117e-05
1.58077e-05
1.58049e-05
1.58005e-05
1.58076e-05
1.58104e-05
1.58126e-05
1.58133e-05
1.5814e-05
1.5812e-05
1.58057e-05
1.58015e-05
1.57999e-05
1.58006e-05
1.58083e-05
1.581e-05
1.58107e-05
1.58106e-05
1.58098e-05
1.5807e-05
1.58018e-05
1.57972e-05
1.57955e-05
1.58006e-05
1.58076e-05
1.58083e-05
1.58092e-05
1.58083e-05
1.5806e-05
1.58044e-05
1.57993e-05
1.57937e-05
1.57916e-05
1.57996e-05
1.58062e-05
1.58075e-05
1.5808e-05
1.58062e-05
1.58048e-05
1.58034e-05
1.57966e-05
1.57925e-05
1.57917e-05
1.57996e-05
1.58057e-05
1.58065e-05
1.58065e-05
1.5805e-05
1.5804e-05
1.58021e-05
1.57966e-05
1.57941e-05
1.57935e-05
1.5819e-05
1.58189e-05
1.58208e-05
1.58232e-05
1.58254e-05
1.58303e-05
1.5842e-05
1.5844e-05
1.58377e-05
1.58263e-05
1.58191e-05
1.58182e-05
1.58205e-05
1.58231e-05
1.58265e-05
1.58349e-05
1.58468e-05
1.58533e-05
1.58519e-05
1.58471e-05
1.58178e-05
1.5817e-05
1.58215e-05
1.58247e-05
1.5829e-05
1.58383e-05
1.58489e-05
1.58567e-05
1.58576e-05
1.58567e-05
1.58169e-05
1.58165e-05
1.58222e-05
1.58253e-05
1.58304e-05
1.58394e-05
1.585e-05
1.58574e-05
1.58598e-05
1.58576e-05
1.58157e-05
1.58159e-05
1.58225e-05
1.58259e-05
1.58311e-05
1.5837e-05
1.58472e-05
1.58551e-05
1.58593e-05
1.58549e-05
1.58149e-05
1.58153e-05
1.58225e-05
1.58253e-05
1.58302e-05
1.58344e-05
1.58421e-05
1.585e-05
1.58551e-05
1.58492e-05
1.58145e-05
1.58144e-05
1.58209e-05
1.58238e-05
1.58279e-05
1.58314e-05
1.58366e-05
1.58423e-05
1.58452e-05
1.5837e-05
1.58144e-05
1.58128e-05
1.58184e-05
1.58204e-05
1.58231e-05
1.58253e-05
1.58281e-05
1.58333e-05
1.58358e-05
1.58292e-05
1.58148e-05
1.58114e-05
1.58161e-05
1.58176e-05
1.58186e-05
1.58198e-05
1.58207e-05
1.58222e-05
1.58244e-05
1.58236e-05
1.58176e-05
1.58101e-05
1.58138e-05
1.58151e-05
1.58154e-05
1.58167e-05
1.58172e-05
1.58171e-05
1.58184e-05
1.58204e-05
1.58326e-05
1.58238e-05
1.58291e-05
1.58421e-05
1.58519e-05
1.5861e-05
1.58723e-05
1.58823e-05
1.5882e-05
1.5879e-05
1.58381e-05
1.5824e-05
1.58285e-05
1.58427e-05
1.5853e-05
1.58627e-05
1.58724e-05
1.58838e-05
1.58871e-05
1.58887e-05
1.58395e-05
1.5824e-05
1.58287e-05
1.58436e-05
1.58533e-05
1.58613e-05
1.58697e-05
1.58824e-05
1.58888e-05
1.58936e-05
1.584e-05
1.58239e-05
1.5829e-05
1.58438e-05
1.58523e-05
1.58585e-05
1.58662e-05
1.58765e-05
1.58869e-05
1.58947e-05
1.58401e-05
1.58237e-05
1.58287e-05
1.58426e-05
1.58508e-05
1.5855e-05
1.58611e-05
1.58702e-05
1.58836e-05
1.58933e-05
1.58398e-05
1.58237e-05
1.5828e-05
1.58413e-05
1.58487e-05
1.58523e-05
1.58562e-05
1.58639e-05
1.58792e-05
1.58894e-05
1.58399e-05
1.58238e-05
1.5827e-05
1.58393e-05
1.58463e-05
1.58499e-05
1.58526e-05
1.58577e-05
1.58713e-05
1.58798e-05
1.58427e-05
1.58242e-05
1.58262e-05
1.58376e-05
1.58448e-05
1.58475e-05
1.58492e-05
1.58523e-05
1.58623e-05
1.58709e-05
1.58467e-05
1.58244e-05
1.58258e-05
1.58369e-05
1.58442e-05
1.58468e-05
1.5848e-05
1.58491e-05
1.58526e-05
1.58555e-05
1.58537e-05
1.58248e-05
1.58254e-05
1.58353e-05
1.58435e-05
1.58464e-05
1.58478e-05
1.58484e-05
1.5849e-05
1.58494e-05
1.58537e-05
1.58531e-05
1.58623e-05
1.58645e-05
1.58653e-05
1.58665e-05
1.58685e-05
1.58697e-05
1.58735e-05
1.58818e-05
1.58563e-05
1.58532e-05
1.58628e-05
1.58661e-05
1.58668e-05
1.58686e-05
1.58703e-05
1.58726e-05
1.58775e-05
1.58814e-05
1.58578e-05
1.58535e-05
1.5865e-05
1.58681e-05
1.58691e-05
1.58709e-05
1.58727e-05
1.58764e-05
1.58799e-05
1.58825e-05
1.58609e-05
1.58532e-05
1.58658e-05
1.5869e-05
1.587e-05
1.58719e-05
1.58744e-05
1.58778e-05
1.58806e-05
1.58823e-05
1.58652e-05
1.58516e-05
1.58662e-05
1.587e-05
1.58705e-05
1.58723e-05
1.5875e-05
1.58783e-05
1.58807e-05
1.58811e-05
1.58748e-05
1.5849e-05
1.58661e-05
1.58706e-05
1.58708e-05
1.58723e-05
1.5875e-05
1.58782e-05
1.58797e-05
1.58799e-05
1.58944e-05
1.58458e-05
1.58644e-05
1.58718e-05
1.58712e-05
1.58722e-05
1.58744e-05
1.58774e-05
1.5879e-05
1.58792e-05
1.59298e-05
1.58444e-05
1.58586e-05
1.58727e-05
1.58719e-05
1.5872e-05
1.58733e-05
1.58763e-05
1.58783e-05
1.58789e-05
1.59712e-05
1.58443e-05
1.58494e-05
1.58731e-05
1.58727e-05
1.5872e-05
1.58725e-05
1.58742e-05
1.58769e-05
1.58782e-05
1.59892e-05
1.58454e-05
1.58446e-05
1.58731e-05
1.5874e-05
1.58727e-05
1.58722e-05
1.58722e-05
1.5873e-05
1.58743e-05
1.59797e-05
1.58908e-05
1.58831e-05
1.58827e-05
1.58834e-05
1.58826e-05
1.58796e-05
1.58774e-05
1.58775e-05
1.58744e-05
1.59726e-05
1.58988e-05
1.58836e-05
1.58829e-05
1.58838e-05
1.58823e-05
1.58787e-05
1.58772e-05
1.58772e-05
1.58726e-05
1.59928e-05
1.59008e-05
1.58832e-05
1.5883e-05
1.58836e-05
1.58818e-05
1.58785e-05
1.58773e-05
1.5877e-05
1.58718e-05
1.6e-05
1.59022e-05
1.5883e-05
1.5883e-05
1.58832e-05
1.58804e-05
1.58776e-05
1.58771e-05
1.58783e-05
1.58763e-05
1.60015e-05
1.59023e-05
1.58825e-05
1.58828e-05
1.58825e-05
1.58786e-05
1.58763e-05
1.58768e-05
1.58785e-05
1.58796e-05
1.59849e-05
1.58978e-05
1.58816e-05
1.58826e-05
1.58819e-05
1.5877e-05
1.58757e-05
1.58767e-05
1.58784e-05
1.58793e-05
1.59697e-05
1.58955e-05
1.58808e-05
1.5882e-05
1.58811e-05
1.58762e-05
1.58754e-05
1.58768e-05
1.58787e-05
1.58796e-05
1.59556e-05
1.58943e-05
1.58801e-05
1.5881e-05
1.58803e-05
1.5876e-05
1.58754e-05
1.58769e-05
1.58785e-05
1.58789e-05
1.59517e-05
1.58942e-05
1.58795e-05
1.58798e-05
1.58794e-05
1.58759e-05
1.58755e-05
1.58771e-05
1.58779e-05
1.58774e-05
1.59534e-05
1.58959e-05
1.58792e-05
1.58785e-05
1.58783e-05
1.58758e-05
1.58751e-05
1.58745e-05
1.58736e-05
1.58732e-05
1.58913e-05
1.58827e-05
1.58818e-05
1.58819e-05
1.58832e-05
1.5884e-05
1.58848e-05
1.58841e-05
1.58779e-05
1.58773e-05
1.58903e-05
1.58829e-05
1.58817e-05
1.58818e-05
1.58828e-05
1.58831e-05
1.58827e-05
1.58796e-05
1.5877e-05
1.58785e-05
1.58897e-05
1.58827e-05
1.58814e-05
1.58812e-05
1.58812e-05
1.58808e-05
1.58796e-05
1.58789e-05
1.58799e-05
1.5896e-05
1.58936e-05
1.58832e-05
1.58817e-05
1.58814e-05
1.58809e-05
1.58802e-05
1.58801e-05
1.58827e-05
1.58976e-05
1.59147e-05
1.58983e-05
1.58843e-05
1.58822e-05
1.5882e-05
1.58815e-05
1.58816e-05
1.58843e-05
1.58955e-05
1.59088e-05
1.59119e-05
1.59001e-05
1.58862e-05
1.58842e-05
1.58843e-05
1.58841e-05
1.5886e-05
1.5893e-05
1.59051e-05
1.59107e-05
1.59089e-05
1.59017e-05
1.58888e-05
1.58865e-05
1.58872e-05
1.58902e-05
1.5893e-05
1.59002e-05
1.59079e-05
1.59099e-05
1.59078e-05
1.58999e-05
1.58936e-05
1.58907e-05
1.589e-05
1.58938e-05
1.58973e-05
1.59039e-05
1.59084e-05
1.59086e-05
1.59057e-05
1.58975e-05
1.58957e-05
1.58962e-05
1.58951e-05
1.58954e-05
1.58996e-05
1.59042e-05
1.59083e-05
1.59081e-05
1.59032e-05
1.58977e-05
1.58964e-05
1.58974e-05
1.58998e-05
1.58996e-05
1.59014e-05
1.59036e-05
1.59076e-05
1.5907e-05
1.59032e-05
1.5899e-05
1.5871e-05
1.58676e-05
1.58678e-05
1.58693e-05
1.58742e-05
1.58858e-05
1.58982e-05
1.59687e-05
1.61206e-05
1.588e-05
1.58705e-05
1.58693e-05
1.5869e-05
1.58709e-05
1.58771e-05
1.58891e-05
1.59114e-05
1.60003e-05
1.61508e-05
1.58709e-05
1.58713e-05
1.58712e-05
1.58715e-05
1.58737e-05
1.58805e-05
1.5897e-05
1.59416e-05
1.60833e-05
1.61608e-05
1.58715e-05
1.58719e-05
1.58724e-05
1.58733e-05
1.58771e-05
1.58877e-05
1.59173e-05
1.60136e-05
1.61077e-05
1.61209e-05
1.5875e-05
1.58726e-05
1.5874e-05
1.58771e-05
1.58847e-05
1.59062e-05
1.59649e-05
1.60648e-05
1.60979e-05
1.60334e-05
1.58759e-05
1.58732e-05
1.58755e-05
1.58821e-05
1.58957e-05
1.59298e-05
1.60144e-05
1.6078e-05
1.60819e-05
1.59719e-05
1.58768e-05
1.5874e-05
1.58767e-05
1.58849e-05
1.59072e-05
1.59579e-05
1.60408e-05
1.60782e-05
1.60548e-05
1.59452e-05
1.58893e-05
1.58764e-05
1.588e-05
1.58894e-05
1.59138e-05
1.59623e-05
1.60406e-05
1.60772e-05
1.60539e-05
1.59392e-05
1.59082e-05
1.58782e-05
1.5883e-05
1.5894e-05
1.59154e-05
1.59578e-05
1.60325e-05
1.60719e-05
1.6055e-05
1.59424e-05
1.58981e-05
1.58798e-05
1.58886e-05
1.58994e-05
1.59154e-05
1.59406e-05
1.59978e-05
1.60523e-05
1.60612e-05
1.59425e-05
1.70432e-05
1.70186e-05
1.6844e-05
1.67296e-05
1.67656e-05
1.67375e-05
1.6772e-05
1.71276e-05
1.69824e-05
1.69519e-05
1.72395e-05
1.71295e-05
1.68527e-05
1.67525e-05
1.68565e-05
1.69174e-05
1.70401e-05
1.72655e-05
1.70409e-05
1.7046e-05
1.70147e-05
1.68678e-05
1.67227e-05
1.68426e-05
1.69914e-05
1.703e-05
1.71577e-05
1.73173e-05
1.72201e-05
1.70851e-05
1.71272e-05
1.67607e-05
1.68152e-05
1.70078e-05
1.71023e-05
1.72004e-05
1.73947e-05
1.74151e-05
1.72869e-05
1.70474e-05
1.72561e-05
1.70335e-05
1.71491e-05
1.72435e-05
1.73126e-05
1.73862e-05
1.73953e-05
1.73332e-05
1.70599e-05
1.70596e-05
1.73189e-05
1.71402e-05
1.71718e-05
1.72133e-05
1.72115e-05
1.71799e-05
1.70289e-05
1.68905e-05
1.68242e-05
1.69961e-05
1.73697e-05
1.68716e-05
1.67939e-05
1.67421e-05
1.67352e-05
1.67295e-05
1.67559e-05
1.67378e-05
1.6868e-05
1.68007e-05
1.74546e-05
1.70953e-05
1.69569e-05
1.67519e-05
1.67496e-05
1.67547e-05
1.67607e-05
1.67075e-05
1.67645e-05
1.66869e-05
1.75228e-05
1.72159e-05
1.71782e-05
1.71073e-05
1.69183e-05
1.68439e-05
1.6748e-05
1.67119e-05
1.6766e-05
1.67175e-05
1.75461e-05
1.7307e-05
1.72289e-05
1.72021e-05
1.70537e-05
1.68742e-05
1.67767e-05
1.67729e-05
1.68247e-05
1.6778e-05
1.85236e-05
1.85244e-05
1.8525e-05
1.85153e-05
1.85124e-05
1.85304e-05
1.8606e-05
1.86571e-05
1.86703e-05
1.86742e-05
1.85268e-05
1.85251e-05
1.85214e-05
1.85178e-05
1.85272e-05
1.85823e-05
1.86392e-05
1.86549e-05
1.86447e-05
1.86782e-05
1.85283e-05
1.85244e-05
1.85223e-05
1.85237e-05
1.85504e-05
1.86134e-05
1.86512e-05
1.86592e-05
1.86814e-05
1.86822e-05
1.85282e-05
1.85252e-05
1.8525e-05
1.8532e-05
1.85607e-05
1.86113e-05
1.86474e-05
1.86723e-05
1.8677e-05
1.86679e-05
1.85289e-05
1.85269e-05
1.85275e-05
1.85356e-05
1.85603e-05
1.86024e-05
1.86319e-05
1.8651e-05
1.86453e-05
1.86294e-05
1.85302e-05
1.85295e-05
1.85333e-05
1.85436e-05
1.85615e-05
1.85798e-05
1.86105e-05
1.86095e-05
1.86068e-05
1.86068e-05
1.85336e-05
1.8535e-05
1.85393e-05
1.85469e-05
1.85604e-05
1.85668e-05
1.85808e-05
1.85854e-05
1.85977e-05
1.86006e-05
1.8537e-05
1.85388e-05
1.85485e-05
1.85794e-05
1.85755e-05
1.85746e-05
1.85772e-05
1.85832e-05
1.86001e-05
1.85937e-05
1.8541e-05
1.85579e-05
1.85877e-05
1.8595e-05
1.85981e-05
1.85922e-05
1.85953e-05
1.85909e-05
1.85784e-05
1.85704e-05
1.85507e-05
1.85684e-05
1.85917e-05
1.85907e-05
1.8598e-05
1.85992e-05
1.85945e-05
1.85859e-05
1.8583e-05
1.85835e-05
1.8668e-05
1.86727e-05
1.86645e-05
1.86567e-05
1.8654e-05
1.86515e-05
1.86513e-05
1.86589e-05
1.86839e-05
1.8732e-05
1.86665e-05
1.86671e-05
1.86607e-05
1.86596e-05
1.86586e-05
1.86616e-05
1.86754e-05
1.87087e-05
1.87511e-05
1.87634e-05
1.86677e-05
1.8667e-05
1.86655e-05
1.86694e-05
1.86782e-05
1.86994e-05
1.87468e-05
1.87967e-05
1.88099e-05
1.87731e-05
1.86706e-05
1.86739e-05
1.86816e-05
1.87014e-05
1.87366e-05
1.87937e-05
1.88473e-05
1.88709e-05
1.88772e-05
1.88084e-05
1.86809e-05
1.86943e-05
1.87232e-05
1.87694e-05
1.88064e-05
1.88521e-05
1.88807e-05
1.88925e-05
1.88989e-05
1.88674e-05
1.87166e-05
1.87518e-05
1.87909e-05
1.88147e-05
1.88375e-05
1.88566e-05
1.88785e-05
1.88883e-05
1.88923e-05
1.88679e-05
1.87722e-05
1.87996e-05
1.88125e-05
1.88204e-05
1.88261e-05
1.8842e-05
1.88646e-05
1.88797e-05
1.88823e-05
1.88662e-05
1.87973e-05
1.88058e-05
1.88083e-05
1.88029e-05
1.8801e-05
1.88302e-05
1.88517e-05
1.88716e-05
1.88716e-05
1.88651e-05
1.87998e-05
1.88033e-05
1.87954e-05
1.87899e-05
1.87915e-05
1.88276e-05
1.88476e-05
1.88651e-05
1.88614e-05
1.8862e-05
1.87877e-05
1.87993e-05
1.87883e-05
1.87804e-05
1.87847e-05
1.88257e-05
1.88401e-05
1.88572e-05
1.88574e-05
1.88604e-05
1.886e-05
1.88717e-05
1.88798e-05
1.89e-05
1.89264e-05
1.89646e-05
1.90066e-05
1.90165e-05
1.90147e-05
1.89679e-05
1.88711e-05
1.88819e-05
1.88818e-05
1.88991e-05
1.89241e-05
1.89511e-05
1.89932e-05
1.90197e-05
1.90219e-05
1.89842e-05
1.88767e-05
1.88944e-05
1.88937e-05
1.88978e-05
1.89197e-05
1.89442e-05
1.89678e-05
1.90012e-05
1.90146e-05
1.90059e-05
1.88615e-05
1.88823e-05
1.8908e-05
1.89108e-05
1.89201e-05
1.89408e-05
1.89605e-05
1.89744e-05
1.89991e-05
1.90117e-05
1.88334e-05
1.88446e-05
1.88684e-05
1.88858e-05
1.88785e-05
1.89303e-05
1.89597e-05
1.89646e-05
1.89826e-05
1.90028e-05
1.88065e-05
1.88103e-05
1.88182e-05
1.88308e-05
1.88387e-05
1.88857e-05
1.89517e-05
1.89603e-05
1.89716e-05
1.89876e-05
1.87928e-05
1.87937e-05
1.87979e-05
1.88099e-05
1.88221e-05
1.8851e-05
1.89288e-05
1.89533e-05
1.89591e-05
1.89731e-05
1.8775e-05
1.87819e-05
1.87868e-05
1.87991e-05
1.88093e-05
1.8823e-05
1.88841e-05
1.89379e-05
1.89501e-05
1.89652e-05
1.87528e-05
1.87654e-05
1.87739e-05
1.87856e-05
1.87977e-05
1.88094e-05
1.88434e-05
1.89113e-05
1.89393e-05
1.896e-05
1.87379e-05
1.87589e-05
1.877e-05
1.87799e-05
1.87935e-05
1.88013e-05
1.88167e-05
1.88726e-05
1.89246e-05
1.89562e-05
1.57254e-05
1.57301e-05
1.57225e-05
1.57119e-05
1.57074e-05
1.57052e-05
1.57041e-05
1.57047e-05
1.5708e-05
1.57149e-05
1.57237e-05
1.57358e-05
1.57421e-05
1.57378e-05
1.57287e-05
1.57199e-05
1.57153e-05
1.5716e-05
1.57193e-05
1.57233e-05
1.57124e-05
1.57281e-05
1.57423e-05
1.57493e-05
1.57491e-05
1.57462e-05
1.5742e-05
1.57388e-05
1.57379e-05
1.57341e-05
1.57036e-05
1.57123e-05
1.57321e-05
1.57484e-05
1.57537e-05
1.57546e-05
1.57536e-05
1.57514e-05
1.57457e-05
1.57345e-05
1.57031e-05
1.57102e-05
1.57255e-05
1.57442e-05
1.57521e-05
1.57544e-05
1.5754e-05
1.57513e-05
1.5743e-05
1.57311e-05
1.57057e-05
1.57138e-05
1.57251e-05
1.57366e-05
1.57447e-05
1.57491e-05
1.57485e-05
1.57438e-05
1.57336e-05
1.57207e-05
1.57095e-05
1.57135e-05
1.57199e-05
1.57261e-05
1.57311e-05
1.57332e-05
1.57311e-05
1.57252e-05