/*--------------------------------*- C++ -*----------------------------------*\
  =========                 |
  \\      /  F ield         | OpenFOAM: The Open Source CFD Toolbox
   \\    /   O peration     | Website:  https://openfoam.org
    \\  /    A nd           | Version:  9
     \\/     M anipulation  |
\*---------------------------------------------------------------------------*/
FoamFile
{
    format      ascii;
    class       volScalarField;
    location    "80";
    object      alpha.gas;
}
// * * * * * * * * * * * * * * * * * * * * * * * * * * * * * * * * * * * * * //

dimensions      [0 0 0 0 0 0 0];

internalField   nonuniform List<scalar> 
137980
(
0.313497
0.313506
0.313523
0.312493
0.311219
0.310436
0.307517
0.301131
0.301703
0.265367
0.314435
0.313259
0.311809
0.30932
0.306457
0.303822
0.30055
0.292882
0.275504
0.250436
0.315262
0.314135
0.311983
0.308587
0.304706
0.301326
0.297307
0.28483
0.262834
0.249607
0.317989
0.316855
0.314391
0.31046
0.305628
0.300362
0.292912
0.278614
0.259862
0.250581
0.322205
0.320884
0.318311
0.314086
0.308155
0.300449
0.289967
0.275576
0.260159
0.251419
0.326607
0.325344
0.322994
0.318983
0.312577
0.303397
0.291256
0.276709
0.262372
0.253667
0.328975
0.329163
0.327743
0.324906
0.319094
0.309992
0.297632
0.28349
0.270749
0.262969
0.327608
0.329603
0.330276
0.329851
0.326284
0.318785
0.308404
0.297104
0.288534
0.285008
0.322557
0.325943
0.329654
0.332266
0.332099
0.326808
0.319217
0.310646
0.306811
0.312787
0.315018
0.323839
0.329061
0.332819
0.334988
0.334023
0.330714
0.326853
0.318925
0.325489
0.315087
0.314641
0.313529
0.312324
0.312126
0.313704
0.314815
0.312087
0.3203
0.271091
0.315086
0.313642
0.311241
0.308044
0.305469
0.304689
0.30441
0.304478
0.291294
0.26225
0.315682
0.313798
0.31071
0.30634
0.302077
0.299635
0.297523
0.288773
0.267842
0.248862
0.318248
0.316157
0.312509
0.306724
0.300402
0.294335
0.285724
0.269388
0.247846
0.234752
0.322186
0.319892
0.316127
0.309859
0.300638
0.289077
0.274027
0.254239
0.232775
0.22005
0.325762
0.323893
0.32114
0.315615
0.305087
0.288753
0.269036
0.246894
0.226522
0.216916
0.327022
0.327773
0.32716
0.323036
0.312835
0.295316
0.272544
0.248251
0.227624
0.217583
0.32467
0.328698
0.330239
0.329257
0.321997
0.306791
0.285072
0.259954
0.237212
0.227224
0.320641
0.325888
0.330241
0.333139
0.329842
0.318761
0.301806
0.281607
0.262776
0.259209
0.314236
0.322809
0.329667
0.335184
0.335913
0.330819
0.321722
0.311588
0.296137
0.306288
0.317919
0.316847
0.315056
0.314961
0.319156
0.329503
0.33754
0.320209
0.329359
0.253658
0.316824
0.31491
0.31221
0.310497
0.311645
0.319096
0.327355
0.323983
0.307555
0.255089
0.316898
0.314203
0.311049
0.308425
0.307951
0.313067
0.319763
0.31728
0.291827
0.25334
0.318704
0.315306
0.311186
0.307188
0.304899
0.305705
0.308016
0.301528
0.276363
0.249134
0.321674
0.31764
0.312476
0.306571
0.301679
0.29725
0.293284
0.282816
0.261253
0.242515
0.324105
0.32041
0.315402
0.307657
0.299211
0.290494
0.279729
0.265729
0.247064
0.233793
0.32481
0.323966
0.320755
0.311994
0.298662
0.284676
0.269576
0.25197
0.234251
0.224044
0.32469
0.327069
0.325313
0.317565
0.302313
0.283483
0.262083
0.239257
0.221899
0.213981
0.323309
0.328057
0.328747
0.32364
0.308714
0.287483
0.264411
0.238226
0.213938
0.211822
0.317676
0.326521
0.332069
0.331782
0.319629
0.299471
0.278067
0.252577
0.219569
0.233455
0.321949
0.321224
0.320265
0.324223
0.336978
0.353712
0.341843
0.330953
0.302469
0.201667
0.319655
0.317426
0.3159
0.317757
0.328249
0.339987
0.332362
0.309021
0.275252
0.197382
0.319039
0.315527
0.313407
0.314326
0.32315
0.331784
0.32589
0.296797
0.259354
0.200737
0.319111
0.315022
0.312331
0.312141
0.318088
0.32292
0.314768
0.285213
0.251386
0.208779
0.320407
0.315335
0.311486
0.310028
0.311117
0.311615
0.299439
0.273306
0.247399
0.219896
0.321825
0.31618
0.311195
0.308122
0.305186
0.299055
0.285
0.261675
0.24288
0.229746
0.323219
0.318766
0.312418
0.306681
0.300442
0.289578
0.272514
0.250997
0.236822
0.229658
0.325397
0.323237
0.314603
0.305558
0.296365
0.282305
0.26198
0.240352
0.228173
0.22673
0.32802
0.328016
0.320153
0.305316
0.291805
0.274721
0.251876
0.228446
0.212399
0.217107
0.325824
0.326587
0.323339
0.310957
0.294015
0.275993
0.252386
0.223055
0.203298
0.216599
0.324797
0.329863
0.334479
0.350645
0.373416
0.369694
0.348665
0.314389
0.221893
0.15866
0.320808
0.321531
0.327103
0.341579
0.354847
0.351028
0.31902
0.271094
0.197853
0.164033
0.317678
0.315403
0.318361
0.327603
0.336179
0.330333
0.291369
0.238966
0.190325
0.177349
0.31547
0.310662
0.309865
0.313542
0.316621
0.305901
0.267211
0.221055
0.194518
0.192394
0.315346
0.308273
0.304465
0.302608
0.297887
0.282436
0.252324
0.222391
0.203799
0.207891
0.316113
0.308035
0.302172
0.29568
0.283862
0.265078
0.242478
0.225936
0.215302
0.226229
0.317897
0.309836
0.302133
0.292717
0.276846
0.254951
0.236053
0.227107
0.226617
0.239918
0.322348
0.314533
0.30329
0.29062
0.272615
0.251772
0.234119
0.226729
0.230402
0.243778
0.329903
0.321847
0.305593
0.287886
0.269033
0.250511
0.232734
0.224691
0.225486
0.239398
0.333953
0.320753
0.306366
0.288967
0.271003
0.252766
0.233235
0.218817
0.213558
0.227496
0.336244
0.358916
0.369953
0.386213
0.386211
0.356856
0.311072
0.238027
0.175666
0.159447
0.334091
0.354186
0.368635
0.375228
0.357502
0.312225
0.256613
0.203608
0.186818
0.217812
0.325449
0.33863
0.347034
0.345984
0.312562
0.26374
0.222393
0.208026
0.22418
0.288046
0.311909
0.316859
0.319286
0.308508
0.275623
0.241588
0.224588
0.223572
0.273545
0.340586
0.298549
0.296019
0.292463
0.279296
0.255468
0.236352
0.230502
0.250461
0.307702
0.356243
0.289165
0.279624
0.271318
0.258909
0.245043
0.238554
0.24423
0.277686
0.332261
0.367694
0.285136
0.26983
0.257273
0.246779
0.241072
0.242592
0.258698
0.293345
0.338212
0.365657
0.288694
0.270581
0.25315
0.242463
0.239148
0.242434
0.258306
0.289398
0.328854
0.344266
0.297492
0.275817
0.254719
0.24278
0.239146
0.240637
0.254149
0.276916
0.30775
0.319482
0.306163
0.279325
0.258001
0.244472
0.23997
0.240464
0.247847
0.256861
0.271284
0.28278
0.368083
0.380474
0.368198
0.331619
0.283785
0.241187
0.214157
0.207734
0.223872
0.234799
0.356968
0.362672
0.336031
0.292347
0.250132
0.225848
0.220146
0.240578
0.274398
0.299842
0.337146
0.332653
0.299864
0.264636
0.239479
0.231751
0.246451
0.288303
0.325169
0.35109
0.316981
0.304019
0.277556
0.255357
0.245142
0.249672
0.285708
0.33062
0.360099
0.377469
0.297852
0.284264
0.268223
0.258188
0.256486
0.277885
0.322836
0.362464
0.384278
0.392899
0.281823
0.272144
0.264927
0.262063
0.271317
0.304308
0.350364
0.385695
0.400358
0.400407
0.27029
0.264385
0.261934
0.26417
0.286459
0.327029
0.371547
0.402562
0.412776
0.392375
0.263537
0.259188
0.258253
0.263991
0.28812
0.32754
0.374839
0.400947
0.407542
0.378443
0.263655
0.257584
0.256406
0.262455
0.283918
0.319124
0.36247
0.387363
0.392932
0.36799
0.26634
0.258196
0.25692
0.260125
0.276209
0.301252
0.334466
0.355446
0.357988
0.340367
0.265695
0.259048
0.257757
0.257394
0.263604
0.272697
0.282835
0.291193
0.295084
0.294772
0.282882
0.280008
0.285877
0.29336
0.304415
0.315989
0.324369
0.328232
0.328547
0.333426
0.299293
0.302339
0.314353
0.327924
0.34242
0.353194
0.358574
0.359316
0.355258
0.354237
0.310657
0.318339
0.334783
0.355485
0.375203
0.390063
0.398669
0.400391
0.392075
0.381793
0.313136
0.325691
0.347908
0.37581
0.402807
0.423021
0.431344
0.427985
0.40808
0.39166
0.309407
0.324413
0.351165
0.387125
0.421488
0.445372
0.453213
0.436611
0.408662
0.385958
0.301914
0.318712
0.346494
0.385534
0.430098
0.462409
0.47275
0.452538
0.416387
0.382492
0.293916
0.309727
0.335775
0.374599
0.421551
0.460793
0.4759
0.475902
0.438211
0.388585
0.286971
0.299865
0.321762
0.355372
0.398913
0.444339
0.468673
0.468734
0.443771
0.396629
0.281614
0.293102
0.308242
0.331386
0.365525
0.404359
0.424964
0.411262
0.386211
0.362958
0.289686
0.285995
0.293192
0.295626
0.294853
0.294184
0.295746
0.296584
0.29662
0.29422
0.337711
0.341409
0.348622
0.355119
0.358384
0.353748
0.344566
0.333472
0.324736
0.322569
0.369416
0.383206
0.395603
0.405826
0.409134
0.406559
0.393337
0.378539
0.363392
0.353006
0.385314
0.407513
0.425512
0.439108
0.445115
0.445908
0.429832
0.409934
0.38932
0.373562
0.389374
0.418172
0.442557
0.460707
0.47055
0.473151
0.457943
0.430497
0.399453
0.376907
0.385176
0.413707
0.442674
0.467787
0.482228
0.487223
0.480337
0.453669
0.411646
0.374963
0.370189
0.39897
0.430478
0.457669
0.477736
0.487623
0.487624
0.469659
0.434131
0.388187
0.343839
0.375764
0.407194
0.433151
0.454391
0.470776
0.474455
0.466713
0.442353
0.402764
0.319751
0.349239
0.378443
0.399721
0.415901
0.432944
0.440126
0.431636
0.415456
0.398777
0.3027
0.326466
0.345306
0.355438
0.375107
0.398855
0.400285
0.389674
0.379427
0.363758
0.304869
0.292644
0.283336
0.28005
0.277368
0.275064
0.272537
0.269925
0.268203
0.267818
0.355167
0.349961
0.343346
0.340697
0.33659
0.330847
0.322515
0.314778
0.310662
0.314555
0.394386
0.401195
0.399887
0.402592
0.401184
0.390437
0.377572
0.362591
0.349553
0.345424
0.41766
0.443408
0.444021
0.445711
0.44539
0.435334
0.422444
0.404858
0.386128
0.372647
0.426532
0.461786
0.467662
0.468043
0.466461
0.458147
0.44538
0.427031
0.403717
0.381306
0.428814
0.45518
0.469954
0.472622
0.472619
0.466995
0.455834
0.438394
0.413257
0.380817
0.402983
0.431773
0.454837
0.464039
0.467213
0.465175
0.457145
0.440923
0.418741
0.387463
0.36689
0.397531
0.428105
0.442443
0.447936
0.447479
0.441363
0.426953
0.410547
0.390285
0.342589
0.368172
0.398204
0.412484
0.415059
0.415994
0.412187
0.40043
0.386889
0.374276
0.325158
0.350143
0.370098
0.370977
0.374486
0.386924
0.389833
0.380334
0.367579
0.357306
0.272982
0.26594
0.25458
0.243252
0.23391
0.227704
0.223848
0.222504
0.222198
0.232104
0.298635
0.290047
0.282427
0.275745
0.270845
0.268776
0.268664
0.274295
0.283833
0.302793
0.326875
0.324947
0.324385
0.324894
0.325198
0.32762
0.331801
0.336525
0.34294
0.353178
0.358886
0.3664
0.372518
0.383706
0.393371
0.400737
0.404036
0.398072
0.388888
0.385649
0.39661
0.409446
0.418156
0.433907
0.448285
0.459412
0.464713
0.456143
0.439301
0.415496
0.419874
0.43908
0.453122
0.464672
0.476429
0.485303
0.487189
0.481945
0.468939
0.42799
0.400561
0.428041
0.450864
0.468513
0.480428
0.486957
0.486794
0.482708
0.477432
0.440278
0.377456
0.398195
0.427294
0.452575
0.466294
0.473096
0.471971
0.467299
0.461606
0.442134
0.358096
0.374557
0.401843
0.425033
0.436872
0.443286
0.4422
0.437019
0.426706
0.40466
0.333358
0.358783
0.383988
0.394176
0.399237
0.409691
0.411632
0.405371
0.395736
0.369585
0.332343
0.317813
0.337115
0.337168
0.322678
0.30512
0.283325
0.249083
0.211087
0.188274
0.292944
0.289679
0.300021
0.300231
0.286598
0.265521
0.240737
0.22178
0.214089
0.22041
0.282432
0.278543
0.281736
0.279929
0.262669
0.247692
0.237022
0.23307
0.24934
0.28497
0.279499
0.274139
0.274141
0.273736
0.264449
0.25652
0.253513
0.272037
0.308475
0.349108
0.286649
0.275113
0.272758
0.27283
0.275687
0.282221
0.29664
0.328743
0.364318
0.390598
0.300084
0.287932
0.281586
0.281436
0.293836
0.315068
0.346812
0.382454
0.406404
0.411929
0.313362
0.307243
0.298684
0.295646
0.308091
0.337625
0.381679
0.41832
0.438791
0.438653
0.317972
0.322478
0.316789
0.312051
0.318643
0.340884
0.377693
0.415259
0.448033
0.454765
0.31442
0.330356
0.330296
0.32824
0.332013
0.344185
0.368006
0.403053
0.440511
0.434617
0.303454
0.325595
0.337977
0.339487
0.342789
0.348687
0.360551
0.384007
0.422567
0.414846
0.283597
0.255796
0.286078
0.302035
0.306387
0.291403
0.277928
0.278303
0.282905
0.286417
0.259277
0.268045
0.292408
0.312506
0.314658
0.304333
0.288598
0.281377
0.279148
0.277634
0.255311
0.282439
0.304003
0.319528
0.321433
0.313689
0.299244
0.28848
0.283728
0.280153
0.279673
0.299563
0.317851
0.327115
0.326167
0.318025
0.306179
0.297833
0.292755
0.286845
0.289617
0.311228
0.32753
0.332063
0.329797
0.32251
0.314284
0.306928
0.300364
0.293737
0.289865
0.319398
0.334485
0.335929
0.334397
0.329773
0.323431
0.316015
0.309834
0.30173
0.288536
0.326262
0.34053
0.340676
0.340429
0.338363
0.333194
0.328147
0.32412
0.319726
0.297431
0.32967
0.343388
0.345181
0.34372
0.344416
0.342647
0.341266
0.341013
0.344022
0.309022
0.322157
0.339511
0.346701
0.347745
0.34952
0.350178
0.350946
0.351996
0.337955
0.314808
0.317391
0.333745
0.343977
0.348201
0.351618
0.354356
0.357098
0.356892
0.340526
0.236845
0.228042
0.244331
0.268007
0.294425
0.312851
0.316815
0.314946
0.310146
0.310009
0.229251
0.250443
0.279333
0.308058
0.334105
0.347711
0.346702
0.341452
0.332882
0.324462
0.259322
0.287769
0.31568
0.342864
0.364319
0.374123
0.371267
0.362314
0.349895
0.334336
0.282353
0.310983
0.344783
0.372092
0.389208
0.391559
0.38514
0.371632
0.355115
0.334206
0.289788
0.328785
0.366667
0.391838
0.402064
0.399573
0.388677
0.371815
0.353755
0.331858
0.294018
0.343659
0.379564
0.401391
0.405508
0.401003
0.387498
0.370577
0.35257
0.333526
0.303325
0.350371
0.383504
0.403893
0.405512
0.399272
0.386252
0.370725
0.354414
0.339837
0.312274
0.344939
0.377136
0.400408
0.404352
0.39582
0.383756
0.369937
0.355297
0.345161
0.31532
0.335779
0.365217
0.389953
0.395271
0.388315
0.377881
0.365222
0.349562
0.335707
0.31128
0.333377
0.359456
0.378773
0.384389
0.377488
0.3699
0.361714
0.349348
0.335523
0.274414
0.316387
0.342116
0.353427
0.359178
0.364164
0.364093
0.356614
0.338459
0.315368
0.270848
0.320243
0.355672
0.370256
0.375434
0.375171
0.371138
0.360966
0.344105
0.327442
0.278518
0.329704
0.366554
0.381188
0.384263
0.381882
0.375484
0.36503
0.351009
0.336053
0.282895
0.337375
0.375271
0.389914
0.391766
0.387176
0.378369
0.367463
0.354722
0.339285
0.284373
0.341533
0.379275
0.394467
0.395645
0.389375
0.379518
0.368517
0.35649
0.341639
0.28714
0.342762
0.379671
0.395302
0.39616
0.389262
0.379286
0.368644
0.356998
0.344075
0.291816
0.335873
0.372938
0.390267
0.391748
0.385635
0.377201
0.367624
0.356119
0.343489
0.29514
0.327104
0.362789
0.381259
0.383369
0.377826
0.371778
0.364517
0.354184
0.342727
0.295926
0.320952
0.35174
0.369476
0.37161
0.36494
0.36062
0.356868
0.348178
0.337854
0.291436
0.322482
0.345096
0.358888
0.360195
0.350733
0.345641
0.344466
0.3436
0.340303
0.26222
0.302147
0.332948
0.354508
0.368252
0.386276
0.394434
0.384217
0.357753
0.326596
0.247876
0.295262
0.333531
0.358397
0.37208
0.383124
0.390573
0.383167
0.362272
0.339485
0.243255
0.292162
0.332753
0.356795
0.369182
0.377712
0.382026
0.377437
0.365014
0.34821
0.241462
0.289007
0.333054
0.356428
0.366801
0.374233
0.377716
0.373899
0.364742
0.351667
0.239542
0.28402
0.326467
0.35219
0.363764
0.370668
0.374642
0.371783
0.363747
0.350812
0.237256
0.277244
0.319693
0.346911
0.35955
0.366794
0.371676
0.369872
0.362113
0.348363
0.235773
0.269806
0.310274
0.33917
0.351912
0.359658
0.367557
0.368834
0.362216
0.348109
0.235002
0.264468
0.299279
0.328035
0.340359
0.346937
0.357784
0.364643
0.363008
0.354304
0.23458
0.26168
0.290669
0.31642
0.325798
0.329281
0.338627
0.349751
0.352207
0.34727
0.235058
0.262443
0.287147
0.306297
0.311635
0.31222
0.317983
0.326761
0.331856
0.323418
0.241117
0.272924
0.300558
0.326428
0.351095
0.376543
0.389452
0.3952
0.421661
0.499624
0.228017
0.265756
0.302474
0.332935
0.358457
0.382485
0.398244
0.417162
0.427845
0.46415
0.214317
0.249886
0.288903
0.326108
0.359031
0.38533
0.407605
0.430628
0.453171
0.497912
0.206086
0.237052
0.275261
0.313466
0.349123
0.382304
0.41138
0.441261
0.464137
0.502743
0.19894
0.225346
0.262192
0.301075
0.339481
0.378942
0.413396
0.445164
0.470554
0.504662
0.19332
0.215137
0.249888
0.288808
0.327501
0.370844
0.413755
0.446729
0.469418
0.484399
0.189876
0.207737
0.239658
0.277913
0.314813
0.355945
0.400086
0.4369
0.45797
0.469629
0.189025
0.204655
0.233543
0.271422
0.303861
0.336532
0.378273
0.419089
0.44434
0.454662
0.190106
0.205116
0.23209
0.270181
0.298646
0.31805
0.347851
0.387307
0.421191
0.443408
0.191843
0.21631
0.246866
0.280602
0.298729
0.30635
0.319283
0.342501
0.369034
0.383784
0.265553
0.295068
0.311448
0.328136
0.349652
0.375651
0.409601
0.445574
0.462962
0.465624
0.259703
0.272246
0.293303
0.319644
0.34958
0.384639
0.42518
0.467309
0.485041
0.478576
0.259391
0.265137
0.285593
0.31501
0.351219
0.391201
0.434309
0.477458
0.495098
0.485196
0.249967
0.260968
0.281279
0.312668
0.352518
0.396945
0.44308
0.484477
0.500954
0.501338
0.247735
0.259712
0.278734
0.31096
0.352911
0.400111
0.450027
0.488267
0.50199
0.503512
0.24951
0.259554
0.277475
0.309993
0.351642
0.400848
0.453325
0.488567
0.498539
0.496841
0.255003
0.259549
0.276833
0.30956
0.350593
0.398894
0.454234
0.488508
0.495767
0.492024
0.261459
0.259321
0.277912
0.311954
0.349811
0.394204
0.448832
0.486258
0.494257
0.491145
0.265427
0.260117
0.281797
0.316957
0.349739
0.388764
0.44039
0.479521
0.49309
0.498154
0.266062
0.261154
0.287201
0.326348
0.353884
0.382524
0.434386
0.464435
0.467885
0.465937
0.356223
0.381684
0.401233
0.413059
0.418973
0.408491
0.392582
0.357687
0.325871
0.289158
0.349206
0.364871
0.381832
0.396123
0.400775
0.388542
0.368231
0.341439
0.316897
0.279022
0.316816
0.335798
0.353964
0.371347
0.379078
0.368324
0.347172
0.320965
0.287505
0.242545
0.293915
0.30874
0.32733
0.34703
0.355396
0.342007
0.317115
0.287469
0.261585
0.251734
0.281444
0.289308
0.303141
0.321004
0.329111
0.316609
0.295436
0.278036
0.268771
0.292541
0.275566
0.276878
0.280928
0.293065
0.302189
0.301566
0.294331
0.286165
0.292078
0.34245
0.275934
0.270759
0.265598
0.265628
0.281986
0.294909
0.300563
0.303396
0.326693
0.389115
0.283247
0.272712
0.264871
0.260943
0.265249
0.289301
0.310339
0.324265
0.363019
0.424772
0.29024
0.277727
0.26994
0.264918
0.26492
0.281099
0.310165
0.343533
0.403149
0.462383
0.288002
0.277391
0.274298
0.272454
0.269975
0.277353
0.304217
0.346397
0.396394
0.449172
0.378958
0.403935
0.381332
0.381264
0.392382
0.372217
0.341805
0.318421
0.301783
0.275475
0.381514
0.416845
0.402169
0.391049
0.385266
0.363153
0.337491
0.31727
0.294947
0.264263
0.371553
0.394968
0.393463
0.386914
0.376579
0.354669
0.332356
0.311416
0.283153
0.26486
0.353735
0.368989
0.374644
0.374534
0.363633
0.342122
0.319114
0.296418
0.279862
0.281924
0.345311
0.352415
0.355245
0.353791
0.343618
0.323828
0.303346
0.288887
0.284731
0.318306
0.33796
0.339074
0.335344
0.328464
0.319888
0.30672
0.295403
0.291631
0.299568
0.354834
0.343913
0.327822
0.317658
0.305733
0.299405
0.296358
0.295266
0.296834
0.318007
0.389113
0.347219
0.322079
0.305855
0.290993
0.285411
0.289241
0.295673
0.306644
0.33625
0.426757
0.351091
0.321891
0.299564
0.284034
0.277147
0.281848
0.292238
0.305674
0.337326
0.447836
0.344037
0.320215
0.297036
0.279296
0.271364
0.274152
0.282386
0.304437
0.340045
0.478578
0.698714
0.685655
0.671618
0.636309
0.595601
0.561795
0.564445
0.611304
0.692953
0.692678
0.729532
0.688772
0.658569
0.631296
0.595788
0.558671
0.539041
0.594986
0.705973
0.701027
0.699137
0.665824
0.650234
0.634384
0.600872
0.563284
0.554208
0.600815
0.69539
0.707879
0.685716
0.641313
0.650859
0.641751
0.611033
0.586449
0.597203
0.637847
0.689006
0.705216
0.656804
0.655087
0.672022
0.660814
0.639999
0.63991
0.646698
0.659283
0.676958
0.702532
0.624527
0.665018
0.67717
0.675685
0.669119
0.664867
0.66274
0.648692
0.639622
0.673144
0.630242
0.655935
0.654006
0.649226
0.645882
0.64742
0.648404
0.642288
0.622044
0.677819
0.650328
0.648304
0.644142
0.639894
0.633451
0.631756
0.641604
0.6492
0.638014
0.685124
0.681647
0.638574
0.650147
0.661041
0.635447
0.619681
0.632797
0.666192
0.658341
0.670989
0.671623
0.64719
0.674752
0.681503
0.655417
0.631099
0.64007
0.676903
0.691476
0.675147
0.981119
0.980571
0.980146
0.979948
0.980538
0.981625
0.983121
0.984909
0.986887
0.988987
0.980692
0.97968
0.978767
0.978083
0.977651
0.97745
0.977403
0.978678
0.98012
0.981702
0.979952
0.977632
0.975524
0.973854
0.972694
0.972048
0.971818
0.972205
0.972837
0.97376
0.976044
0.97256
0.9694
0.966821
0.964944
0.963801
0.963606
0.963868
0.964459
0.965387
0.970002
0.965421
0.961205
0.957505
0.954434
0.952149
0.952401
0.952963
0.953842
0.955035
0.962714
0.95704
0.951786
0.947028
0.942957
0.93961
0.939851
0.940366
0.941177
0.942404
0.954877
0.948115
0.941685
0.935563
0.929959
0.925102
0.925382
0.925954
0.926747
0.928292
0.946959
0.938731
0.930846
0.922838
0.916205
0.910377
0.910782
0.911585
0.912481
0.914932
0.933932
0.921975
0.91163
0.903059
0.897025
0.894242
0.894789
0.896284
0.899181
0.904405
0.921413
0.905807
0.8939
0.886319
0.881609
0.879674
0.879383
0.882642
0.887963
0.895353
0.999932
0.999928
0.999918
0.99986
0.999753
0.999656
0.999573
0.999507
0.999461
0.999433
0.999904
0.999896
0.9998
0.999651
0.999517
0.999406
0.999325
0.999276
0.999256
0.999255
0.999833
0.999746
0.999557
0.999383
0.999231
0.99911
0.99903
0.998991
0.998983
0.9991
0.999636
0.999469
0.99924
0.999031
0.998856
0.998727
0.998654
0.998629
0.998786
0.999029
0.999359
0.999129
0.998839
0.998576
0.998361
0.99822
0.998161
0.998302
0.998577
0.998925
0.999011
0.998718
0.998372
0.99805
0.997784
0.99761
0.997553
0.997804
0.998233
0.998614
0.998529
0.99811
0.997729
0.997393
0.997116
0.996915
0.996886
0.997077
0.997707
0.998135
0.997895
0.997314
0.996833
0.996448
0.996179
0.996043
0.996062
0.99628
0.996958
0.997554
0.997297
0.996511
0.995936
0.995457
0.995146
0.995004
0.995106
0.995381
0.996102
0.996911
0.996393
0.995728
0.99508
0.994523
0.994184
0.994077
0.994137
0.994528
0.995264
0.996187
1
1
1
1
1
1
0.999999
0.999998
0.999997
0.999997
1
1
1
1
0.999999
0.999998
0.999996
0.999995
0.999994
0.999995
1
1
0.999999
0.999999
0.999998
0.999995
0.999993
0.999992
0.999994
0.999995
0.999999
0.999999
0.999998
0.999997
0.999995
0.999993
0.999992
0.999992
0.999994
0.999996
0.999998
0.999997
0.999996
0.999995
0.999993
0.999991
0.999991
0.999992
0.999995
0.999997
0.999996
0.999995
0.999994
0.999992
0.999991
0.99999
0.99999
0.999992
0.999995
0.999997
0.999994
0.999993
0.999991
0.99999
0.999989
0.999988
0.999988
0.99999
0.999994
0.999996
0.999992
0.99999
0.999989
0.999987
0.999986
0.999986
0.999986
0.999989
0.999992
0.999995
0.999991
0.999988
0.999986
0.999985
0.999984
0.999984
0.999985
0.999987
0.999991
0.999993
0.999988
0.999985
0.999983
0.999982
0.999981
0.999982
0.999983
0.999986
0.999989
0.999991
0.270838
0.263859
0.258776
0.256105
0.254609
0.253157
0.251305
0.248573
0.247637
0.253143
0.271946
0.264136
0.256801
0.250889
0.246444
0.243126
0.240318
0.236905
0.235336
0.238798
0.270573
0.2627
0.254447
0.246996
0.240534
0.235102
0.230061
0.225075
0.222843
0.226754
0.266808
0.258737
0.251019
0.242749
0.234731
0.22761
0.221178
0.215857
0.21492
0.219315
0.260921
0.252902
0.2452
0.23675
0.22796
0.220192
0.213751
0.209786
0.210788
0.216043
0.253424
0.245648
0.237487
0.228895
0.220799
0.214062
0.209057
0.20824
0.210948
0.216839
0.246482
0.238333
0.229696
0.221946
0.215597
0.211086
0.209345
0.210325
0.213704
0.219845
0.242652
0.233955
0.2256
0.219447
0.215457
0.21299
0.212973
0.215227
0.218955
0.224225
0.245059
0.235575
0.227992
0.222625
0.219399
0.218214
0.21891
0.221168
0.224474
0.228552
0.252491
0.241939
0.234481
0.228893
0.225695
0.224479
0.224883
0.226527
0.229648
0.233962
0.280839
0.273619
0.268203
0.264689
0.263061
0.26213
0.261157
0.259944
0.259701
0.261208
0.285479
0.277414
0.269582
0.263447
0.258636
0.255373
0.253114
0.251489
0.250897
0.250128
0.287034
0.278798
0.270233
0.262395
0.25582
0.250321
0.245894
0.242122
0.239379
0.237239
0.286121
0.277691
0.269185
0.260957
0.253142
0.245998
0.239692
0.234219
0.229978
0.228266
0.283117
0.274507
0.26597
0.257632
0.249523
0.241438
0.233943
0.227623
0.223084
0.222833
0.277367
0.269
0.260702
0.252532
0.244412
0.236286
0.228762
0.223013
0.219401
0.220321
0.269926
0.262452
0.25438
0.246313
0.238498
0.231225
0.225277
0.221256
0.21949
0.220851
0.263333
0.25655
0.248418
0.240747
0.23407
0.228554
0.224689
0.222176
0.221778
0.223247
0.260321
0.253518
0.245378
0.238516
0.233184
0.22928
0.226748
0.225671
0.226211
0.227556
0.262042
0.254175
0.246528
0.240176
0.235577
0.232695
0.231255
0.230928
0.231949
0.233805
0.285568
0.278903
0.272732
0.268319
0.265496
0.264011
0.263039
0.262214
0.262379
0.263907
0.29143
0.28454
0.276544
0.26978
0.264687
0.260998
0.258392
0.256681
0.256189
0.255611
0.294107
0.28706
0.27871
0.270472
0.263666
0.258292
0.254
0.250521
0.248206
0.24625
0.295302
0.287218
0.278562
0.270188
0.262582
0.255852
0.250242
0.245359
0.241399
0.238537
0.294357
0.286023
0.277279
0.268673
0.2606
0.25344
0.24694
0.240938
0.235852
0.232572
0.291457
0.282877
0.274278
0.265831
0.257809
0.250501
0.243765
0.237341
0.231812
0.228417
0.286275
0.278273
0.270097
0.262068
0.254489
0.247424
0.240847
0.234857
0.230003
0.227063
0.280357
0.273594
0.265954
0.25842
0.251458
0.245093
0.239313
0.234317
0.230384
0.227957
0.275833
0.270163
0.262928
0.255833
0.249634
0.244374
0.239705
0.235721
0.232801
0.230906
0.274047
0.268835
0.262171
0.255639
0.250051
0.245599
0.24204
0.239172
0.237333
0.236406
0.285918
0.279969
0.273402
0.268423
0.265067
0.263033
0.26154
0.260972
0.261465
0.262856
0.29273
0.286739
0.279153
0.272429
0.267283
0.263085
0.260163
0.258306
0.257466
0.256821
0.295727
0.289303
0.281548
0.273873
0.267267
0.262151
0.258009
0.254726
0.252323
0.250558
0.297117
0.289631
0.281439
0.273539
0.266467
0.260364
0.255259
0.251097
0.247699
0.245062
0.296697
0.288654
0.280315
0.272318
0.264953
0.258466
0.252873
0.248009
0.243839
0.240354
0.29513
0.286763
0.278449
0.270587
0.263291
0.256708
0.250882
0.245723
0.241083
0.23689
0.292298
0.284274
0.276347
0.268849
0.261904
0.255565
0.2499
0.244702
0.239807
0.235406
0.288637
0.281683
0.27458
0.267601
0.261195
0.255464
0.250171
0.245048
0.240149
0.235828
0.284886
0.279236
0.273089
0.266887
0.261136
0.255981
0.251263
0.246564
0.242029
0.237825
0.28154
0.277085
0.271911
0.266556
0.261513
0.257019
0.252908
0.248895
0.245272
0.242028
0.281128
0.276891
0.270685
0.265791
0.262437
0.260271
0.259097
0.258967
0.259614
0.26107
0.290886
0.28541
0.278369
0.271982
0.267049
0.263414
0.260567
0.258554
0.257698
0.256937
0.295061
0.288721
0.281284
0.274062
0.268153
0.263511
0.25989
0.256935
0.25462
0.252776
0.296634
0.289246
0.281255
0.273772
0.267462
0.26221
0.257843
0.254177
0.251133
0.248826
0.296069
0.288258
0.280097
0.272445
0.265935
0.260385
0.255666
0.251621
0.248105
0.245168
0.294503
0.286427
0.278344
0.270867
0.264476
0.258957
0.25418
0.249936
0.246136
0.242779
0.292152
0.284358
0.276745
0.269807
0.263914
0.258783
0.254192
0.249923
0.245951
0.242137
0.289202
0.28225
0.275588
0.269567
0.264354
0.259709
0.255479
0.251325
0.247201
0.243132
0.285585
0.280032
0.274705
0.269644
0.265301
0.261327
0.257595
0.25374
0.249681
0.245459
0.281401
0.277585
0.273169
0.268868
0.265294
0.262237
0.259272
0.25598
0.252369
0.248696
0.267684
0.267663
0.264623
0.260986
0.258047
0.256468
0.256224
0.256948
0.258726
0.260903
0.282728
0.280129
0.275177
0.269828
0.265495
0.262416
0.260307
0.25886
0.258135
0.257462
0.291135
0.285958
0.279586
0.273152
0.267797
0.263756
0.260657
0.258238
0.256314
0.254557
0.294337
0.287344
0.279904
0.273041
0.267254
0.26279
0.25924
0.256165
0.253527
0.25134
0.293576
0.286334
0.278691
0.271661
0.265733
0.260969
0.257125
0.253821
0.250878
0.248233
0.291575
0.284256
0.2768
0.26999
0.264218
0.259574
0.25579
0.25242
0.249329
0.246396
0.289413
0.282359
0.275411
0.269087
0.263811
0.259656
0.256095
0.252789
0.24962
0.246483
0.28699
0.280633
0.274557
0.269042
0.264443
0.260946
0.25784
0.254707
0.251488
0.24822
0.283405
0.278415
0.273651
0.269136
0.265447
0.262777
0.260304
0.257519
0.25437
0.250955
0.278511
0.275355
0.271643
0.268
0.265136
0.263285
0.261684
0.259599
0.25687
0.253895
0.248503
0.254489
0.255574
0.254795
0.253551
0.253449
0.254452
0.25676
0.259349
0.261706
0.266747
0.269671
0.268506
0.265682
0.262817
0.260867
0.259812
0.259475
0.259132
0.258566
0.280573
0.278838
0.275449
0.27091
0.266711
0.26345
0.261072
0.259261
0.257793
0.256212
0.288438
0.283412
0.277335
0.271509
0.266639
0.262933
0.260061
0.257595
0.255399
0.253379
0.289076
0.283158
0.27646
0.270303
0.265225
0.261266
0.258126
0.25542
0.252961
0.25062
0.287109
0.280902
0.274313
0.268372
0.26351
0.259756
0.256747
0.254108
0.251647
0.249178
0.284553
0.278565
0.272577
0.267261
0.263025
0.259735
0.25707
0.254591
0.252159
0.249639
0.282033
0.276734
0.271693
0.267203
0.263646
0.260934
0.258824
0.256652
0.254302
0.251835
0.278401
0.274445
0.270694
0.267203
0.264555
0.26266
0.261171
0.259456
0.257308
0.254908
0.273556
0.27129
0.268401
0.265778
0.264022
0.263123
0.26248
0.261426
0.259737
0.257887
0.236608
0.243581
0.247879
0.24999
0.251222
0.25302
0.25529
0.258234
0.261233
0.263959
0.252023
0.258794
0.260989
0.26091
0.260263
0.259947
0.260087
0.260515
0.260691
0.260377
0.266349
0.269547
0.269521
0.2676
0.265127
0.263076
0.261512
0.260315
0.259263
0.257938
0.278255
0.276918
0.273723
0.269666
0.265888
0.262955
0.260717
0.258779
0.256967
0.255184
0.282991
0.279076
0.273955
0.269093
0.264889
0.261585
0.258978
0.256745
0.254689
0.25264
0.282265
0.277553
0.272247
0.267303
0.263271
0.260081
0.257586
0.255465
0.253515
0.251482
0.279844
0.274996
0.270087
0.265726
0.26229
0.259755
0.257694
0.255839
0.254059
0.252149
0.276918
0.272684
0.268705
0.265214
0.262562
0.260659
0.259208
0.257761
0.256212
0.254572
0.27329
0.270285
0.267575
0.265054
0.263325
0.262214
0.261404
0.260471
0.259211
0.257829
0.269183
0.267616
0.265515
0.26378
0.262937
0.262863
0.262884
0.262584
0.261774
0.261042
0.233864
0.239748
0.244819
0.248827
0.251971
0.254957
0.258219
0.261767
0.264898
0.267907
0.245324
0.252244
0.255906
0.257985
0.259456
0.260484
0.261419
0.26242
0.262954
0.262916
0.25723
0.262699
0.264745
0.264678
0.264014
0.263238
0.262413
0.261735
0.260894
0.25994
0.269061
0.270742
0.270032
0.267843
0.265325
0.263209
0.261518
0.259957
0.258389
0.256877
0.276498
0.274761
0.271618
0.267968
0.264688
0.262002
0.259814
0.257868
0.256095
0.254416
0.277844
0.274567
0.270682
0.266722
0.263283
0.260564
0.258445
0.25666
0.255031
0.253366
0.27629
0.272633
0.268731
0.26511
0.262213
0.260032
0.258389
0.256945
0.255622
0.254228
0.273392
0.270187
0.267027
0.264195
0.26211
0.260689
0.259622
0.258645
0.25772
0.256756
0.269846
0.267795
0.265735
0.263835
0.262629
0.262002
0.261629
0.261211
0.260621
0.26022
0.266648
0.265612
0.264062
0.262886
0.262615
0.262906
0.263343
0.263541
0.263398
0.263645
0.23568
0.241082
0.246087
0.25078
0.255041