/*--------------------------------*- C++ -*----------------------------------*\
  =========                 |
  \\      /  F ield         | OpenFOAM: The Open Source CFD Toolbox
   \\    /   O peration     | Website:  https://openfoam.org
    \\  /    A nd           | Version:  9
     \\/     M anipulation  |
\*---------------------------------------------------------------------------*/
FoamFile
{
    format      ascii;
    class       volScalarField;
    location    "80";
    object      CO2.gas;
}
// * * * * * * * * * * * * * * * * * * * * * * * * * * * * * * * * * * * * * //

dimensions      [0 0 0 0 0 0 0];

internalField   nonuniform List<scalar> 
137980
(
0.618268
0.61773
0.614662
0.609259
0.603637
0.600098
0.598873
0.599207
0.600298
0.599363
0.621359
0.62008
0.615291
0.609624
0.604563
0.60105
0.598913
0.59844
0.59905
0.598889
0.62448
0.622375
0.615589
0.610516
0.606205
0.603454
0.60096
0.598987
0.598743
0.598707
0.625687
0.623425
0.616673
0.611878
0.608056
0.60557
0.604325
0.601081
0.59939
0.599146
0.625622
0.62378
0.617864
0.613748
0.610849
0.607694
0.606446
0.605369
0.602465
0.601196
0.624855
0.624011
0.619842
0.615679
0.613775
0.610657
0.608583
0.607752
0.607245
0.606607
0.62375
0.623578
0.621783
0.617943
0.61581
0.614334
0.612158
0.610784
0.609872
0.609804
0.623584
0.62314
0.622342
0.62012
0.617916
0.616789
0.615881
0.615215
0.614987
0.614712
0.623468
0.623192
0.622236
0.620663
0.618943
0.618265
0.617829
0.617493
0.617414
0.617519
0.623445
0.622831
0.621457
0.620507
0.61941
0.618771
0.61843
0.618198
0.618115
0.617762
0.617487
0.616468
0.612736
0.608263
0.603639
0.600576
0.599808
0.601111
0.601941
0.600601
0.619802
0.617762
0.612985
0.608558
0.604623
0.601401
0.599731
0.60033
0.601491
0.600511
0.622384
0.618983
0.613336
0.609449
0.606237
0.603627
0.600628
0.599975
0.600583
0.600333
0.623567
0.620215
0.614446
0.610977
0.607875
0.605792
0.6022
0.600388
0.600296
0.600227
0.623932
0.621293
0.616114
0.613014
0.610326
0.607466
0.605122
0.601573
0.600543
0.600348
0.623776
0.622492
0.618615
0.614912
0.612988
0.609852
0.60775
0.604326
0.601637
0.600928
0.623487
0.623069
0.621402
0.61755
0.615127
0.613117
0.610754
0.60809
0.60412
0.602526
0.623641
0.623254
0.622509
0.620492
0.617764
0.616331
0.614829
0.613269
0.610932
0.607288
0.623388
0.623473
0.622947
0.621864
0.619814
0.618347
0.617516
0.616776
0.616165
0.614855
0.623434
0.623115
0.622519
0.621846
0.620757
0.619776
0.619022
0.618437
0.617875
0.618056
0.617092
0.615191
0.612369
0.608602
0.604731
0.602471
0.602026
0.603705
0.604544
0.602197
0.618618
0.615862
0.612499
0.608936
0.606314
0.603078
0.602067
0.603585
0.60413
0.602318
0.620053
0.616598
0.612852
0.609815
0.60764
0.604168
0.602213
0.603191
0.603817
0.602413
0.621198
0.61786
0.613877
0.611321
0.608673
0.605266
0.602741
0.602564
0.603574
0.602526
0.622092
0.619447
0.615648
0.613155
0.610358
0.606698
0.603331
0.602563
0.602997
0.602537
0.622994
0.621485
0.618174
0.614706
0.612606
0.608833
0.604701
0.602912
0.60277
0.602563
0.623386
0.622857
0.621148
0.617234
0.614435
0.611638
0.60669
0.603723
0.602937
0.602676
0.623542
0.623308
0.622554
0.620402
0.61719
0.615045
0.611132
0.605647
0.60374
0.603071
0.622851
0.623437
0.623166
0.622119
0.619583
0.617708
0.615707
0.611194
0.606648
0.604963
0.623172
0.623042
0.622768
0.622528
0.621135
0.619266
0.618001
0.616602
0.6149
0.614554
0.616769
0.614643
0.612568
0.610227
0.608059
0.605458
0.605013
0.605851
0.606568
0.599136
0.617582
0.615226
0.612902
0.610593
0.607711
0.605515
0.605394
0.605978
0.606131
0.598614
0.61859
0.615916
0.613142
0.610935
0.607858
0.605671
0.60546
0.605949
0.60583
0.59867
0.619772
0.617008
0.613918
0.611789
0.608247
0.605783
0.605339
0.605931
0.605846
0.599058
0.621204
0.618587
0.615315
0.612906
0.609326
0.606057
0.605296
0.605891
0.60593
0.600079
0.622618
0.620817
0.617422
0.614015
0.610944
0.606621
0.605501
0.605735
0.605936
0.601793
0.623228
0.62257
0.620411
0.616116
0.612454
0.607688
0.605945
0.605643
0.605817
0.603392
0.623319
0.623256
0.622311
0.619455
0.615041
0.609953
0.606668
0.60582
0.605766
0.603985
0.62229
0.623254
0.623108
0.62164
0.617963
0.613649
0.608461
0.606584
0.606111
0.604661
0.622373
0.62283
0.622975
0.622461
0.620159
0.616151
0.611453
0.609435
0.608888
0.609692
0.616329
0.614515
0.612945
0.611022
0.609076
0.608375
0.608707
0.608656
0.604305
0.59269
0.616761
0.614655
0.612558
0.609967
0.6085
0.608155
0.608249
0.60748
0.60094
0.592898
0.61745
0.614896
0.612345
0.609485
0.608252
0.607992
0.60797
0.606161
0.59758
0.592587
0.61833
0.615563
0.612673
0.609556
0.608052
0.607576
0.607283
0.604183
0.59573
0.591225
0.619649
0.616649
0.613527
0.610115
0.60812
0.607357
0.606954
0.603806
0.59598
0.591349
0.621465
0.618683
0.61479
0.611225
0.608465
0.60735
0.606828
0.604109
0.597108
0.592379
0.622653
0.621025
0.617335
0.612491
0.60929
0.607498
0.606844
0.604885
0.599965
0.594884
0.623042
0.622571
0.620152
0.615287
0.610503
0.608092
0.606943
0.605752
0.60349
0.600158
0.622509
0.622891
0.622068
0.618629
0.613318
0.609835
0.607376
0.606326
0.605081
0.602667
0.622379
0.622805
0.622672
0.620833
0.616092
0.611567
0.60877
0.607712
0.607436
0.606402
0.614907
0.61449
0.613883
0.613192
0.612188
0.611843
0.610856
0.607859
0.596232
0.594794
0.613972
0.61319
0.612045
0.611489
0.611255
0.611052
0.608844
0.601102
0.595799
0.595479
0.613359
0.611995
0.610999
0.610619
0.610489
0.609212
0.60407
0.597078
0.594767
0.594042
0.613243
0.611628
0.610442
0.609702
0.60888
0.606162
0.599582
0.59509
0.593451
0.5926
0.613462
0.611534
0.610077
0.609173
0.607265
0.603319
0.596891
0.593739
0.592301
0.590703
0.6143
0.611773
0.609585
0.607907
0.605434
0.600915
0.595375
0.592768
0.590933
0.589852
0.616322
0.612616
0.609838
0.607462
0.604515
0.600252
0.595415
0.592828
0.590872
0.590333
0.61914
0.614359
0.610914
0.607735
0.604692
0.600451
0.595958
0.593413
0.591581
0.59295
0.620682
0.617541
0.612872
0.60882
0.60553
0.601126
0.597387
0.595057
0.593328
0.594784
0.621678
0.620015
0.61637
0.611093
0.606909
0.602689
0.599501
0.597883
0.597437
0.596794
0.615707
0.614924
0.614301
0.612968
0.611958
0.609354
0.601989
0.599653
0.600587
0.600959
0.614375
0.613821
0.613074
0.612126
0.609979
0.604237
0.601153
0.600819
0.601634
0.601964
0.612986
0.612652
0.612019
0.610398
0.605995
0.601975
0.600882
0.600819
0.60116
0.601006
0.612351
0.611921
0.610627
0.607775
0.603132
0.601099
0.600428
0.600185
0.599423
0.597119
0.611907
0.610854
0.609076
0.605644
0.601965
0.600337
0.599513
0.598227
0.594194
0.592246
0.611568
0.609991
0.607353
0.603996
0.600785
0.599326
0.597422
0.593873
0.592024
0.591727
0.611551
0.609197
0.606703
0.602985
0.59986
0.597895
0.595016
0.592784
0.592365
0.595393
0.611775
0.609135
0.6061
0.602234
0.598734
0.596451
0.59392
0.592868
0.59329
0.59977
0.612745
0.609558
0.606273
0.602352
0.598718
0.59616
0.593972
0.593125
0.594041
0.59932
0.614358
0.609586
0.606405
0.602724
0.599015
0.596523
0.594459
0.593704
0.594537
0.597108
0.60641
0.605739
0.605532
0.605475
0.605635
0.605925
0.606343
0.606605
0.606805
0.606959
0.607486
0.606383
0.605951
0.605601
0.605469
0.605437
0.605458
0.605546
0.605902
0.606176
0.607844
0.606372
0.605705
0.604897
0.603964
0.602719
0.601648
0.601218
0.601082
0.601079
0.607994
0.606207
0.60485
0.602708
0.599984
0.598765
0.598269
0.598102
0.598081
0.598304
0.607903
0.605856
0.60298
0.599588
0.59823
0.597895
0.597964
0.598364
0.599046
0.599361
0.607879
0.605361
0.601264
0.598567
0.597894
0.59791
0.598931
0.601285
0.604473
0.60641
0.607983
0.604905
0.600523
0.598192
0.597653
0.597643
0.598279
0.600233
0.604
0.609699
0.608266
0.605033
0.6006
0.59801
0.597102
0.596763
0.596496
0.597188
0.599132
0.606929
0.609141
0.605493
0.601002
0.598143
0.597025
0.596405
0.595349
0.595157
0.595735
0.599534
0.608731
0.605071
0.600951
0.598476
0.59729
0.596584
0.595467
0.595108
0.59564
0.596549
0.606773
0.607154
0.60725
0.607255
0.607156
0.607129
0.607351
0.607881
0.608555
0.609205
0.604038
0.604467
0.604128
0.604005
0.603965
0.604343
0.605155
0.605637
0.60627
0.607016
0.602145
0.602253
0.602212
0.602413
0.603058
0.603883
0.604663
0.605437
0.60582
0.606207
0.601277
0.601218
0.601234
0.601674
0.602369
0.603818
0.605694
0.607208
0.608985
0.609713
0.601089
0.600774
0.600619
0.600562
0.601231
0.602697
0.604417
0.60673
0.609949
0.612538
0.601255
0.600763
0.600046
0.599462
0.599372
0.599921
0.601419
0.604027
0.607441
0.612352
0.601776
0.600903
0.60007
0.59884
0.598169
0.597865
0.598182
0.599227
0.601582
0.607425
0.603128
0.601261
0.600246
0.598903
0.597843
0.597221
0.597309
0.597792
0.598903
0.602199
0.605813
0.602337
0.600767
0.599187
0.598283
0.597285
0.597344
0.597692
0.598176
0.600316
0.604968
0.602433
0.601044
0.599651
0.599323
0.598419
0.599819
0.601963
0.602358
0.602382
0.607158
0.608371
0.608742
0.609179
0.609412
0.60981
0.610027
0.610393
0.610572
0.610699
0.60382
0.6058
0.606624
0.607673
0.608271
0.609197
0.609721
0.610385
0.610815
0.611276
0.60103
0.602401
0.603446
0.604869
0.606196
0.607619
0.608757
0.609699
0.610723
0.611526
0.59968
0.600278
0.601308
0.602359
0.604186
0.606253
0.607765
0.609293
0.610949
0.612607
0.598925
0.599059
0.599616
0.600351
0.601245
0.60262
0.604361
0.606405
0.608847
0.611473
0.599004
0.598761
0.598676
0.598966
0.599212
0.599589
0.600364
0.601916
0.604041
0.608357
0.601225
0.599362
0.598777
0.598573
0.598395
0.598305
0.598559
0.599347
0.600865
0.60363
0.604523
0.600963
0.599263
0.598795
0.59836
0.598138
0.598319
0.598936
0.600294
0.602354
0.607281
0.603296
0.600627
0.59945
0.599004
0.598953
0.599258
0.600406
0.603067
0.603424
0.606575
0.602965
0.600958
0.599999
0.600241
0.600262
0.601326
0.604929
0.60803
0.607365
0.607236
0.607013
0.606501
0.605469
0.604866
0.60466
0.605105
0.605857
0.606446
0.60679
0.607247
0.6085
0.609016
0.609686
0.610009
0.610414
0.610772
0.611076
0.611409
0.611628
0.604259
0.60654
0.607482
0.608533
0.609048
0.609725
0.610077
0.610544
0.610821
0.611045
0.601828
0.603952
0.605017
0.606506
0.607439
0.608175
0.608631
0.608957
0.609037
0.608678
0.600246
0.601458
0.60257
0.6038
0.604844
0.605765
0.60638
0.606648
0.606676
0.606438
0.599263
0.599787
0.600339
0.601137
0.601856
0.602536
0.603083
0.603592
0.6041
0.603742
0.599688
0.59911
0.599156
0.599367
0.599527
0.599723
0.599935
0.600271
0.601023
0.601944
0.602829
0.599939
0.599088
0.598869
0.59878
0.598775
0.59891
0.599309
0.600209
0.601383
0.605769
0.603061
0.600095
0.599169
0.598923
0.598958
0.599175
0.599764
0.601311
0.602064
0.607123
0.604622
0.600822
0.599719
0.599872
0.60004
0.600902
0.603084
0.605229
0.604751
0.597169
0.596388
0.596029
0.595802
0.595675
0.593727
0.591559
0.588865
0.58782
0.587747
0.598252
0.596451
0.595625
0.59429
0.59305
0.591954
0.590854
0.590438
0.593384
0.60149
0.598829
0.597375
0.595707
0.594725
0.593739
0.593405
0.594018
0.599404
0.606161
0.608785
0.599355
0.598772
0.597307
0.596765
0.596658
0.598541
0.602788
0.60683
0.608518
0.60923
0.599476
0.599858
0.600132
0.6006
0.601878
0.603893
0.606139
0.607407
0.608225
0.608748
0.598883
0.599918
0.600318
0.601196
0.602529
0.604227
0.605895
0.606886
0.607308
0.607555
0.598156
0.599302
0.599939
0.600738
0.602011
0.603517
0.604731
0.605238
0.605386
0.605311
0.598894
0.598456
0.598899
0.59946
0.60058
0.601876
0.603153
0.60385
0.603759
0.603791
0.602295
0.598215
0.598643
0.598682
0.598841
0.599354
0.600215
0.601594
0.602479
0.602552
0.602973
0.598725
0.598183
0.598207
0.598471
0.598757
0.599262
0.60027
0.601813
0.604505
0.60006
0.601111
0.600651
0.599296
0.597442
0.596631
0.596448
0.59562
0.594833
0.591977
0.602392
0.60206
0.600964
0.598528
0.596241
0.59544
0.59594
0.596005
0.595567
0.594423
0.603046
0.602301
0.60021
0.597312
0.595731
0.594799
0.595058
0.596319
0.596782
0.596544
0.603389
0.601778
0.598425
0.596911
0.59578
0.59527
0.596026
0.597753
0.599077
0.598735
0.603377
0.599536
0.597795
0.597131
0.596808
0.596658
0.598002
0.600424
0.601311
0.60112
0.602854
0.598496
0.597616
0.597655
0.597914
0.598306
0.599928
0.60219
0.602761
0.60277
0.602636
0.598105
0.59756
0.597815
0.598331
0.598904
0.600119
0.602354
0.603099
0.603243
0.603052
0.598088
0.597418
0.597542
0.598049
0.598606
0.599689
0.601894
0.602712
0.602894
0.60513
0.599841
0.597578
0.597151
0.597292
0.59775
0.59847
0.60063
0.601713
0.601936
0.606132
0.602193
0.598375
0.59707
0.596969
0.597012
0.597298
0.598985
0.601227
0.602901
0.598137
0.598709
0.598597
0.598201
0.597184
0.595113
0.593358
0.592885
0.593026
0.592954
0.598801
0.598795
0.598534
0.597534
0.59508
0.592579
0.591658
0.591529
0.591603
0.591987
0.598817
0.598638
0.597535
0.594915
0.592764
0.591564
0.591228
0.591222
0.59138
0.591941
0.598781
0.597799
0.594832
0.593086
0.59198
0.591284
0.591233
0.591444
0.592031
0.592885
0.598476
0.595758
0.593622
0.59261
0.591864
0.591467
0.591685
0.592613
0.593751
0.594797
0.598244
0.594792
0.593401
0.592628
0.592454
0.592273
0.592776
0.59448
0.59563
0.596375
0.598005
0.594462
0.593509
0.593243
0.593316
0.59351
0.594236
0.595635
0.596935
0.597647
0.597922
0.594689
0.594056
0.593672
0.593887
0.594512
0.594985
0.596513
0.598054
0.598627
0.598309
0.595216
0.594356
0.594018
0.59445
0.594873
0.595413
0.597458
0.59856
0.598787
0.598492
0.595435
0.594737
0.594495
0.594832
0.595132
0.59579
0.597516
0.598195
0.598192
0.589752
0.589274
0.588447
0.587695
0.587028
0.585583
0.58239
0.581975
0.583659
0.587043
0.589786
0.589489
0.588511
0.587664
0.586647
0.584297
0.581279
0.579747
0.580193
0.581756
0.589917
0.589558
0.588081
0.58711
0.585892
0.583556
0.580907
0.578907
0.578737
0.579309
0.590077
0.589613
0.58782
0.586946
0.585658
0.583423
0.580695
0.578802
0.578226
0.579033
0.590226
0.589689
0.58775
0.586933
0.585575
0.584192
0.58151
0.579445
0.57839
0.579816
0.590362
0.589864
0.587791
0.587156
0.585895
0.584828
0.582916
0.580806
0.579487
0.581322
0.590422
0.590148
0.588307
0.587578
0.586481
0.5856
0.58437
0.582844
0.582078
0.584555
0.590443
0.590589
0.588975
0.588417
0.587661
0.587145
0.586522
0.585266
0.584664
0.586593
0.590425
0.590997
0.589601
0.58913
0.588835
0.588562
0.588409
0.588273
0.58796
0.588258
0.589927
0.591354
0.590247
0.589849
0.589712
0.589381
0.589269
0.589362
0.588989
0.588276
0.584475
0.586306
0.584462
0.580701
0.578248
0.575977
0.573241
0.5705
0.570295
0.570746
0.583263
0.586423
0.584839
0.58086
0.578188
0.575775
0.573374
0.570604
0.569604
0.569234
0.582946
0.586464
0.584855
0.580762
0.578225
0.576289
0.57428
0.571205
0.569532
0.568406
0.582846
0.586527
0.584875
0.580796
0.578593
0.577101
0.575351
0.572825
0.570249
0.568439
0.582834
0.586583
0.585042
0.581203
0.579041
0.577959
0.576571
0.574499
0.571212
0.568899
0.582919
0.58662
0.585318
0.581619
0.579566
0.578629
0.577693
0.575981
0.572295
0.569918
0.582931
0.586625
0.585647
0.582175
0.580171
0.579236
0.578586
0.577429
0.574288
0.572263
0.582318
0.586555
0.585917
0.582655
0.580555
0.579803
0.579385
0.578776
0.576553
0.574546
0.581434
0.586529
0.586035
0.582887
0.580724
0.579982
0.57964
0.579432
0.578874
0.578261
0.579876
0.586463
0.586142
0.583348
0.580912
0.580043
0.579649
0.579463
0.579259
0.579013
0.577557
0.577559
0.574911
0.574312
0.574134
0.573855
0.57335
0.573093
0.572424
0.570915
0.577134
0.577645
0.574876
0.573991
0.573831
0.573442
0.573034
0.572598
0.571707
0.571006
0.576862
0.577615
0.574347
0.573494
0.573271
0.572858
0.572516
0.571837
0.571261
0.570843
0.576313
0.577747
0.574158
0.573282
0.573024
0.572599
0.572115
0.571557
0.571145
0.570904
0.575512
0.578256
0.574077
0.573042
0.572904
0.572481
0.571971
0.571454
0.571138
0.571145
0.573578
0.579065
0.574113
0.572884
0.572815
0.572436
0.571923
0.571434
0.571277
0.571319
0.569403
0.580049
0.57462
0.57259
0.572697
0.572433
0.571948
0.571484
0.571324
0.571387
0.561676
0.580525
0.57628
0.572412
0.572549
0.572487
0.572168
0.571576
0.571337
0.571302
0.552707
0.580652
0.578916
0.572355
0.572354
0.572495
0.572354
0.571937
0.571384
0.571204
0.548839
0.580439
0.580288
0.572371
0.572105
0.572363
0.57244
0.572435
0.572238
0.571893
0.547365
0.567965
0.569625
0.569346
0.569074
0.569331
0.570213
0.570783
0.570606
0.570792
0.548928
0.566096
0.569641
0.569449
0.569114
0.569488
0.570486
0.570849
0.570619
0.571088
0.5442
0.565634
0.569829
0.569491
0.569209
0.569681
0.570587
0.570867
0.570655
0.571187
0.542515
0.565285
0.569898
0.569546
0.569391
0.570098
0.570855
0.57094
0.570616
0.570624
0.542149
0.565291
0.570037
0.569611
0.569594
0.570588
0.571192
0.571082
0.570676
0.570404
0.545991
0.566405
0.570238
0.569695
0.569804
0.57101
0.571371
0.57116
0.570757
0.570616
0.549478
0.566952
0.570444
0.569838
0.570016
0.571222
0.571444
0.571177
0.570756
0.570611
0.552683
0.567253
0.570562
0.570077
0.570204
0.571302
0.571474
0.571163
0.570846
0.570792
0.553553
0.567287
0.570701
0.570382
0.570399
0.571325
0.571473
0.571127
0.570921
0.570924
0.552974
0.566908
0.570758
0.570685
0.570644
0.571328
0.571502
0.571506
0.571455
0.571439
0.566198
0.568418
0.568594
0.568552
0.568364
0.56823
0.568046
0.568054
0.569603
0.570419
0.567016
0.568393
0.568634
0.568608
0.568427
0.568367
0.568434
0.569182
0.569898
0.570237
0.567411
0.568489
0.568704
0.568742
0.568777
0.568893
0.569238
0.569412
0.569402
0.566736
0.566921
0.568541
0.568698
0.5687
0.568866
0.569095
0.569192
0.568755
0.565704
0.561155
0.566056
0.56854
0.568765
0.568668
0.568815
0.568946
0.568601
0.56612
0.562471
0.561249
0.565697
0.568328
0.568607
0.56847
0.568497
0.568352
0.566892
0.563542
0.561823
0.561218
0.565354
0.567827
0.568243
0.568
0.567372
0.566948
0.565075
0.562808
0.561745
0.561256
0.565654
0.566896
0.567407
0.567512
0.566685
0.565973
0.564075
0.562673
0.561846
0.561657
0.566042
0.566493
0.566329
0.566475
0.566423
0.565389
0.564035
0.562707
0.562015
0.562493
0.565989
0.566414
0.566123
0.565523
0.565581
0.565113
0.564381
0.563001
0.562395
0.562963
0.556175
0.564858
0.566525
0.566802
0.566785
0.566166
0.564156
0.562668
0.548654
0.515889
0.561427
0.56554
0.566366
0.56661
0.566419
0.565454
0.563498
0.560003
0.542057
0.509492
0.564161
0.565436
0.565911
0.566036
0.565778
0.564769
0.562056
0.554364
0.524259
0.505322
0.563902
0.565241
0.565571
0.565617
0.565115
0.563451
0.558468
0.540104
0.516771
0.512219
0.563019
0.565024
0.565158
0.564794
0.563671
0.560176
0.550072
0.527171
0.518394
0.528672
0.563299
0.564892
0.564895
0.564027
0.562055
0.556498
0.539171
0.52347
0.521279
0.542632
0.563153
0.564795
0.564835
0.563819
0.56043
0.551073
0.532583
0.523317
0.525939
0.549005
0.560576
0.564493
0.564649
0.563643
0.559522
0.550474
0.532579
0.523457
0.525987
0.550455
0.556084
0.564172
0.56451
0.563302
0.559621
0.551495
0.534426
0.524577
0.526109
0.549651
0.558437
0.564365
0.564161
0.562619
0.559917
0.555112
0.542723
0.529281
0.52523
0.550104
0.322602
0.326402
0.358383
0.380463
0.373712
0.378473
0.372017
0.311806
0.338446
0.344664
0.28454
0.304467
0.355833
0.375582
0.356231
0.344211
0.321722
0.288604
0.3292
0.32462
0.324396
0.352822
0.38057
0.358769
0.330777
0.32305
0.300545
0.279641
0.295537
0.316505
0.306903
0.372826
0.3627
0.327882
0.310235
0.293409
0.263386
0.262292
0.283632
0.323846
0.284325
0.32476
0.305204
0.288959
0.277461
0.266662
0.2661
0.277197
0.324529
0.324454
0.273498
0.309831
0.304586
0.297022
0.297593
0.303698
0.330636
0.355143
0.366171
0.335927
0.263895
0.35634
0.370673
0.381431
0.382847
0.383631
0.379505
0.382887
0.358702
0.373639
0.248675
0.314774
0.339375
0.378668
0.380996
0.380174
0.379496
0.389257
0.379204
0.395061
0.236008
0.292062
0.299035
0.312149
0.349394
0.36394
0.381953
0.388508
0.378809
0.3887
0.231468
0.275351
0.289673
0.294839
0.323066
0.357698
0.376312
0.376884
0.367332
0.376436
0.0571138
0.0572077
0.0572517
0.0591295
0.0596978
0.056729
0.0433962
0.0349645
0.0323831
0.0317805
0.0567293
0.057214
0.0580182
0.058705
0.0570878
0.0475324
0.0378542
0.0350371
0.0365338
0.0309096
0.0564619
0.0573772
0.0578422
0.057647
0.0530654
0.0421916
0.0356951
0.0341066
0.0303718
0.0302616
0.0565286
0.0572479
0.0573533
0.056208
0.0512472
0.0425156
0.0362288
0.0319096
0.0310644
0.0326699
0.0565108
0.0569486
0.0568815
0.0555094
0.0512346
0.0439571
0.0388608
0.0355611
0.0365306
0.0392684
0.0563172
0.0564916
0.0558824
0.0541227
0.0510311
0.0478409
0.0425169
0.0426393
0.043161
0.0431281
0.0557341
0.0555315
0.0548517
0.0535312
0.0511949
0.0500903
0.0476475
0.0468468
0.044724
0.0442362
0.0551738
0.054848
0.0532562
0.0479013
0.0485503
0.0487239
0.0482825
0.0472561
0.0443149
0.0453628
0.0543062
0.0515412
0.046488
0.0452692
0.0447231
0.0457142
0.0451951
0.0458144
0.0479024
0.0492373
0.0530543
0.0495131
0.0458074
0.0458807
0.0447304
0.0445476
0.045202
0.0465607
0.0471438
0.0469098
0.0326111
0.0334062
0.0337502
0.0345526
0.0349104
0.0351543
0.034809
0.0328366
0.0264592
0.0181979
0.0334516
0.0335639
0.0338757
0.0341298
0.034121
0.0333143
0.0307509
0.0241195
0.0177951
0.0158081
0.0333151
0.0332898
0.0331286
0.0324725
0.0310411
0.0274816
0.0197559
0.0133293
0.0113708
0.0143406
0.0326153
0.0320046
0.0305544
0.0276285
0.0220595
0.0143188
0.00811231
0.00536816
0.00473165
0.0109094
0.0302741
0.0280327
0.0235088
0.0171415
0.0114815
0.00609466
0.00278706
0.00149957
0.0011668
0.00553469
0.0226845
0.0178418
0.0124564
0.00931703
0.00570558
0.00348629
0.00120235
0.000392567
0.000831095
0.00480677
0.0142503
0.0108808
0.00918245
0.00822
0.00724205
0.00454474
0.00196777
0.000473154
0.00108542
0.00452864
0.0108723
0.0099811
0.00971199
0.0105351
0.010781
0.00599161
0.00296976
0.000698063
0.00177965
0.00370562
0.0104611
0.0102917
0.0117254
0.0126128
0.0122536
0.00631633
0.0031945
0.0010267
0.002515
0.00306085
0.0120977
0.0107591
0.0125933
0.0140317
0.0131709
0.00643739
0.00406154
0.00169385
0.00229817
0.00161765
0.00642181
0.0027895
0.00117235
0.000468455
0.000246399
0.000192684
0.000271418
0.000445619
0.000967569
0.00352914
0.00864985
0.00426997
0.00145352
0.00043004
0.000116595
4.45059e-05
2.64446e-05
3.97588e-05
0.000280345
0.00218907
0.0118856
0.00816295
0.00291642
0.000843076
0.00018577
3.79616e-05
4.00242e-06
3.92091e-06
6.95446e-05
0.00078683
0.0150535
0.0128413
0.00827337
0.00328082
0.00126684
0.000318735
1.3509e-05
5.85887e-07
6.21072e-06
9.85869e-05
0.0175433
0.0163735
0.0144159
0.0112728
0.00726469
0.00281623
0.000130883
2.1307e-06
1.29973e-06
1.53369e-05
0.0190338
0.0185714
0.0174894
0.0155116
0.0116375
0.00580503
0.000984241
2.19308e-05
1.57083e-06
2.98756e-06
0.0194311
0.0192161
0.0184695
0.0168568
0.0142883
0.00896931
0.00274466
0.00022007
9.5616e-06
1.5856e-06
0.019372
0.0192677
0.0187897
0.0176388
0.0160311
0.0126802
0.00568825
0.00116606
7.46533e-05
4.5229e-06
0.0188353
0.0190877
0.0188333
0.0181524
0.0169972
0.0148967
0.00927771
0.00311515
0.000391039
2.66959e-05
0.0157661
0.0183361
0.0185574
0.0181194
0.0171699
0.0159485
0.0125563
0.00587963
0.00113587
0.000107004
0.657365
0.653485
0.659117
0.667207
0.670659
0.672322
0.673067
0.672552
0.670016
0.664608
0.658829
0.649632
0.644649
0.647462
0.654253
0.660805
0.66447
0.663885
0.661404
0.658227
0.667508
0.655861
0.644758
0.639242
0.639084
0.641139
0.644204
0.646562
0.647248
0.649975
0.673903
0.667262
0.652656
0.64005
0.63589
0.635078
0.635714
0.637304
0.641347
0.649542
0.674123
0.668656
0.657097
0.643123
0.637054
0.635195
0.635459
0.637288
0.643348
0.65206
0.672027
0.665826
0.657262
0.648526
0.642421
0.639057
0.639429
0.642822
0.650342
0.659785
0.669196
0.665925
0.661061
0.656253
0.652457
0.650773
0.652309
0.656637
0.662672
0.665177
0.669484
0.668062
0.666672
0.664647
0.663304
0.662964
0.664263
0.666364
0.667119
0.666187
0.669327
0.66834
0.66759
0.666533
0.666012
0.665836
0.66611
0.666379
0.666249
0.665065
0.668425
0.667454
0.665887
0.66436
0.663696
0.663489
0.663472
0.663075
0.661717
0.659212
0.666859
0.662704
0.663092
0.666487
0.66975
0.671147
0.672107
0.672532
0.672281
0.670617
0.667244
0.661938
0.656797
0.653179
0.655212
0.659793
0.664628
0.667302
0.667123
0.663797
0.669908
0.665976
0.658578
0.651911
0.646006
0.643947
0.645645
0.649064
0.650178
0.648127
0.672833
0.67122
0.666292
0.656759
0.646638
0.63955
0.636993
0.637191
0.637667
0.638149
0.673786
0.672286
0.66883
0.662195
0.650617
0.64025
0.636322
0.634854
0.634972
0.636356
0.673377
0.671597
0.668477
0.66176
0.651973
0.642941
0.638441
0.636209
0.63633
0.638229
0.672323
0.670535
0.66655
0.661745
0.655119
0.649974
0.645262
0.642657
0.642698
0.645317
0.671364
0.670033
0.667853
0.665037
0.662435
0.659785
0.656637
0.65478
0.655563
0.657153
0.670347
0.669869
0.669169
0.668074
0.66663
0.665781
0.664717
0.663544
0.66388
0.663424
0.668624
0.66881
0.668556
0.667775
0.666611
0.665737
0.664809
0.664329
0.663946
0.663293
0.670362
0.667704
0.666849
0.667563
0.669382
0.670545
0.671132
0.671816
0.672069
0.671815
0.670233
0.66752
0.664251
0.660768
0.65866
0.65996
0.662876
0.66645
0.667959
0.666959
0.670745
0.669456
0.666173
0.661011
0.656153
0.651107
0.64829
0.649684
0.652196
0.650212
0.671556
0.671339
0.669997
0.665951
0.658657
0.651251
0.643914
0.639391
0.638588
0.637439
0.671692
0.671788
0.671053
0.668947
0.664352
0.655544
0.644871
0.637958
0.635374
0.633852
0.672166
0.671763
0.670928
0.668936
0.665052
0.657248
0.64694
0.639091
0.636125
0.634295
0.672231
0.671667
0.670313
0.668319
0.66435
0.657246
0.649452
0.643733
0.640272
0.638313
0.671788
0.671382
0.670418
0.668429
0.665398
0.661196
0.657044
0.653251
0.64987
0.645949
0.670815
0.670625
0.670245
0.669582
0.66848
0.666694
0.664985
0.661972
0.659395
0.656274
0.668634
0.668778
0.66909
0.669069
0.668663
0.667932
0.66685
0.664971
0.663926
0.662465
0.671508
0.669895
0.669205
0.66926
0.669713
0.670358
0.670718
0.671072
0.671514
0.671654
0.671342
0.669678
0.667683
0.665122
0.662622
0.661851
0.662534
0.664061
0.666967
0.666461
0.671258
0.670653
0.668961
0.665466
0.661641
0.657727
0.653159
0.650386
0.651678
0.650158
0.671287
0.671356
0.670885
0.668836
0.664136
0.658459
0.65215
0.645743
0.642137
0.638066
0.670596
0.671273
0.671161
0.670435
0.668322
0.663109
0.654728
0.646512
0.639899
0.635189
0.670575
0.671324
0.671169
0.670555
0.668984
0.665332
0.657826
0.649176
0.64051
0.635703
0.671329
0.671481
0.671155
0.670362
0.668714
0.665162
0.659016
0.650888
0.643385
0.639185
0.671495
0.671387
0.671057
0.670288
0.668962
0.666199
0.662131
0.655635
0.650596
0.645669
0.670827
0.670745
0.670487
0.670097
0.669613
0.66881
0.667119
0.663123
0.660014
0.653113
0.668768
0.668576
0.668756
0.669025
0.669046
0.668853
0.668328
0.666545
0.66471
0.660179
0.671841
0.670601
0.670282
0.670415
0.670494
0.670587
0.670687
0.670787
0.670919
0.671182
0.671661
0.670412
0.669127
0.667119
0.665431
0.664401
0.663509
0.663673
0.664583
0.663959
0.67159
0.671031
0.669721
0.667239
0.664092
0.660997
0.657952
0.652912
0.651671
0.648767
0.671425
0.671418
0.671034
0.669427
0.665559
0.661311
0.657511
0.651068
0.646866
0.640407
0.670613
0.671227
0.671158
0.670622
0.668898
0.664389
0.659428
0.652795
0.647512
0.640174
0.670255
0.671054
0.671109
0.670788
0.669739
0.666896
0.661541
0.655754
0.649493
0.642163
0.670536
0.671159
0.671117
0.670716
0.669682
0.667595
0.663736
0.657568
0.6513
0.644017
0.670915
0.671194
0.671049
0.670552
0.669835
0.668787
0.666738
0.661876
0.654889
0.64738
0.670658
0.670687
0.670424
0.670046
0.669709
0.669375
0.668669
0.66651
0.662587
0.653704
0.669163
0.668744
0.668216
0.668315
0.668701
0.668857
0.668692
0.667943
0.666279
0.660373
0.671648
0.6708
0.670854
0.670848
0.670795
0.670815
0.670859
0.67082
0.670578
0.670563
0.671637
0.670634
0.669382
0.668451
0.667334
0.666719
0.665829
0.664058
0.663505
0.661305
0.671654
0.671046
0.669708
0.667938
0.665047
0.662554
0.660482
0.65569
0.653164
0.647515
0.671601
0.67145
0.670888
0.669259
0.665615
0.662408
0.659886
0.654421
0.650413
0.64341
0.671104
0.671285
0.671112
0.670471
0.668528
0.664084
0.661022
0.655962
0.651584
0.644408
0.670402
0.671003
0.671012
0.670685
0.669606
0.66665
0.662422
0.658257
0.65444
0.648922
0.670523
0.671028
0.670997
0.670625
0.669621
0.667953
0.664804
0.66027
0.655686
0.650525
0.67075
0.671001
0.670903
0.670449
0.669847
0.669213
0.667903
0.664665
0.658684
0.651767
0.670579
0.670574
0.670138
0.669673
0.669533
0.66933
0.668912
0.667678
0.664491
0.655302
0.669693
0.669225
0.668047
0.667605
0.667747
0.668434
0.668581
0.66817
0.666861
0.660823
0.670984
0.670762
0.670817
0.670857
0.670839
0.670919
0.671111
0.671068
0.670587
0.670186
0.671343
0.670618
0.669719
0.66962
0.669413
0.669053
0.668349
0.666863
0.664395
0.661002
0.671562
0.670842
0.669464
0.668072
0.665867
0.664103
0.662124
0.657615
0.654345
0.647107
0.671599
0.671283
0.67021
0.668456
0.66542
0.662698
0.660618
0.655813
0.651855
0.644638
0.671422
0.671235
0.670742
0.669555
0.666735
0.663218
0.661049
0.656804
0.652799
0.645583
0.670913
0.670962
0.670686
0.670023
0.668712
0.665487
0.662191
0.65891
0.655866
0.65042
0.670674
0.670772
0.67055
0.670054
0.669159
0.667691
0.664715
0.660549
0.657308
0.652912
0.670681
0.670662
0.670343
0.669904
0.669536
0.669034
0.667887
0.664846
0.659381
0.653866
0.670521
0.670314
0.669486
0.669024
0.669011
0.668992
0.668748
0.667684
0.664578
0.65635
0.670015
0.669258
0.667796
0.6672
0.667226
0.667785
0.66823
0.667996
0.666819
0.660882
0.669497
0.670397
0.670681
0.670801
0.670877
0.671097
0.671369
0.67133
0.670659
0.669792
0.670632
0.6704
0.670242
0.670287
0.670255
0.67016
0.669796
0.668878
0.666786
0.661827
0.671189
0.670414
0.669296
0.668378
0.667182
0.66593
0.663942
0.659806
0.656454
0.648012
0.671412
0.670645
0.669078
0.667637
0.665287
0.662897
0.660859
0.656259
0.652369
0.644709
0.671342
0.670754
0.669467
0.668089
0.665532
0.662782
0.660898
0.656785
0.652737
0.645395
0.67104
0.670597
0.669499
0.668569
0.666793
0.663963
0.661624
0.65877
0.655752
0.650115
0.670696
0.670055
0.669269
0.66851
0.667838
0.666679
0.664021
0.660278
0.657386
0.653001
0.670427
0.669564
0.668669
0.668252
0.668209
0.668046
0.667196
0.664308
0.659071
0.654149
0.670301
0.669351
0.668088
0.667767
0.667806
0.668032
0.668003
0.667154
0.664031
0.656129
0.670026
0.668884
0.667363
0.666859
0.666883
0.667375
0.667677
0.667493
0.666389
0.660483
0.668462
0.669706
0.670356
0.670658
0.670923
0.671362
0.671724
0.671666
0.67065
0.66952
0.669335
0.670098
0.670318
0.670555
0.670704
0.670779
0.670612
0.669934
0.668136
0.662761
0.670457
0.67008
0.66935
0.669186
0.668914
0.668175
0.666345
0.663118
0.660155
0.651888
0.670829
0.669741
0.668431
0.667437
0.665425
0.663382
0.661234
0.656463
0.652589
0.644854
0.670869
0.669774
0.668381
0.666902
0.664662