/*--------------------------------*- C++ -*----------------------------------*\
  =========                 |
  \\      /  F ield         | OpenFOAM: The Open Source CFD Toolbox
   \\    /   O peration     | Website:  https://openfoam.org
    \\  /    A nd           | Version:  9
     \\/     M anipulation  |
\*---------------------------------------------------------------------------*/
FoamFile
{
    format      ascii;
    class       volScalarField;
    location    "80";
    object      f10.gas;
}
// * * * * * * * * * * * * * * * * * * * * * * * * * * * * * * * * * * * * * //

dimensions      [0 0 0 0 0 0 0];

internalField   nonuniform List<scalar> 
137980
(
0.0162879
0.0161891
0.0162867
0.0167237
0.0173238
0.0181316
0.0193045
0.0213787
0.0226498
0.0252673
0.0161099
0.0160845
0.0163557
0.016932
0.0176893
0.0186705
0.020064
0.0223869
0.0242957
0.0260231
0.01596
0.0159599
0.0163243
0.0170014
0.0178592
0.0189726
0.0204397
0.0227531
0.0252801
0.026346
0.0157319
0.0157527
0.0161607
0.0168924
0.0178416
0.0190774
0.0205835
0.0226341
0.0251436
0.0261516
0.0154485
0.0154884
0.0159053
0.0166258
0.0175922
0.0189153
0.0204509
0.0222678
0.0243716
0.0253685
0.0152566
0.0152658
0.0156
0.0162353
0.0171186
0.0183827
0.0199903
0.0216691
0.0233411
0.0241847
0.0152813
0.0152034
0.0153644
0.0158014
0.0165144
0.0175323
0.0189218
0.0205365
0.022092
0.0231869
0.0156661
0.0153548
0.01532
0.0154962
0.0159534
0.0166871
0.0177022
0.0189159
0.020073
0.021109
0.016515
0.0157951
0.0154838
0.0154673
0.0155971
0.016064
0.0168197
0.0178054
0.0187801
0.0194261
0.0171759
0.0164276
0.0159568
0.015645
0.0155677
0.0156517
0.0161115
0.0169412
0.0180484
0.0188446
0.0162706
0.0162438
0.0164592
0.0170832
0.0180655
0.019534
0.0220925
0.0235255
0.0230037
0.0260207
0.0161425
0.0161883
0.016623
0.0174616
0.0186713
0.020439
0.0235945
0.0250467
0.0249724
0.0270384
0.0160124
0.0161144
0.0166758
0.0176179
0.018974
0.0210197
0.0244541
0.0266005
0.0270233
0.0281987
0.015803
0.0159524
0.0165702
0.0175991
0.0190786
0.0213324
0.0250498
0.0281478
0.028913
0.0291738
0.0155854
0.0157297
0.016334
0.0173486
0.0188688
0.0212008
0.024763
0.0287265
0.0303333
0.0304995
0.0155239
0.0155778
0.0160101
0.0169154
0.018338
0.0205813
0.0238493
0.0282409
0.0303705
0.0311038
0.0158074
0.01567
0.0157498
0.0163724
0.0175489
0.0194197
0.0221958
0.0263235
0.0296092
0.0308351
0.0167993
0.0160897
0.0158501
0.0159604
0.0167176
0.0181018
0.0201754
0.022977
0.0266808
0.0293784
0.0181494
0.0169826
0.0162623
0.0159138
0.0161317
0.0170098
0.0184828
0.0204828
0.0225955
0.0247812
0.0186557
0.0176997
0.0169617
0.0161891
0.0159239
0.0162056
0.0170566
0.0184641
0.0204521
0.0208846
0.0163059
0.0163939
0.0168556
0.0177995
0.0191407
0.0213144
0.0243585
0.0249044
0.0233948
0.0276778
0.0162287
0.0164668
0.0172206
0.0184135
0.0202239
0.0233717
0.0261231
0.0265821
0.0252806
0.0284789
0.0161507
0.0165026
0.0174154
0.01885
0.0210698
0.0247061
0.0274352
0.0280855
0.0272416
0.0293091
0.0160099
0.0164475
0.0174578
0.0190382
0.0215572
0.0256022
0.0286491
0.0295154
0.0291554
0.0302182
0.0159111
0.0163099
0.0173028
0.0189632
0.0216862
0.0259936
0.0296337
0.0307902
0.0308677
0.031144
0.0160087
0.0162091
0.0169703
0.0185317
0.0212423
0.0255643
0.0302042
0.0319795
0.0322722
0.032178
0.0165252
0.016348
0.0166429
0.0178477
0.0202639
0.0242782
0.0298371
0.0327639
0.0337231
0.0332386
0.017719
0.0167836
0.0166041
0.0172052
0.0189863
0.0223007
0.0279896
0.0324711
0.0343795
0.0347434
0.0188301
0.0177093
0.0169077
0.01688
0.0178995
0.0203505
0.0245706
0.030691
0.0336365
0.0349309
0.0191935
0.0183735
0.0175628
0.0168409
0.0171126
0.0187252
0.0217817
0.0261916
0.0295655
0.0292994
0.0165008
0.0168877
0.0177746
0.0191204
0.0212495
0.0252803
0.026494
0.0250804
0.0250916
0.0324199
0.0165977
0.0172784
0.0185721
0.0205559
0.0241513
0.0274417
0.0281823
0.0270191
0.0267744
0.0335138
0.0166832
0.017583
0.0191832
0.0216242
0.0256585
0.0286676
0.0295077
0.0287838
0.0284058
0.0339353
0.016724
0.0177289
0.0194889
0.0221745
0.0264212
0.0295498
0.0305044
0.0304237
0.0295989
0.034321
0.0167716
0.0177483
0.0195315
0.0223244
0.0266604
0.0302005
0.0314508
0.0316576
0.0307601
0.0342551
0.0168944
0.0176425
0.0192227
0.021967
0.0262862
0.0305407
0.0322879
0.0327296
0.0318965
0.0339614
0.0172575
0.0175663
0.0187314
0.021205
0.0253771
0.030407
0.0328351
0.0336718
0.033292
0.0339964
0.0180319
0.0177207
0.0183422
0.0202652
0.0239756
0.0296324
0.0329182
0.0342868
0.0342639
0.0345526
0.018723
0.0181688
0.0181704
0.0194197
0.0224182
0.0278388
0.0327116
0.0351255
0.0361598
0.0360293
0.0190055
0.0184987
0.0182833
0.0186676
0.0210142
0.0259766
0.0313477
0.0345494
0.0362942
0.0359346
0.0174699
0.0185424
0.0206862
0.0226866
0.0248532
0.0257126
0.0247241
0.024458
0.0319794
0.0373558
0.018128
0.0199316
0.0231664
0.0259534
0.0270373
0.0272344
0.0267174
0.0272945
0.0349462
0.0370278
0.0187039
0.0211532
0.0250521
0.0277718
0.0286894
0.0288756
0.0287534
0.0305636
0.0351968
0.0346625
0.0191506
0.0217771
0.025996
0.0289726
0.0299845
0.0303248
0.0305452
0.0326284
0.0352789
0.0328928
0.0193658
0.0219556
0.0261436
0.029699
0.0311063
0.0316777
0.0319653
0.0336921
0.0352743
0.0335321
0.0193585
0.0216484
0.0256042
0.0298168
0.03195
0.032789
0.0330543
0.0341116
0.0352147
0.0343107
0.0192366
0.0210183
0.0244836
0.0292805
0.0322241
0.0336418
0.0340269
0.034332
0.0349908
0.0344328
0.0192186
0.0203787
0.0231037
0.0278984
0.0319394
0.0338667
0.0347074
0.0348446
0.0349965
0.0345154
0.0192505
0.0198309
0.0218766
0.0258847
0.0309096
0.033678
0.0349553
0.0352237
0.0355182
0.0351363
0.0191801
0.0195207
0.0209155
0.0238953
0.0296947
0.0330216
0.0348903
0.0360272
0.0366915
0.0367215
0.0209006
0.0211112
0.0212851
0.0219821
0.0236391
0.0241214
0.0242871
0.0301706
0.0370985
0.036248
0.0230179
0.0238371
0.0242953
0.0250486
0.0258213
0.0262595
0.0289925
0.0341771
0.0352418
0.0277857
0.0250177
0.0260674
0.0265932
0.027397
0.0282953
0.0300014
0.032715
0.0335343
0.0299227
0.0223776
0.0264901
0.027835
0.0285056
0.0294256
0.030791
0.0321691
0.0325847
0.0316609
0.0235868
0.0198837
0.0275071
0.0292752
0.030138
0.031276
0.032283
0.0326205
0.0320758
0.0283446
0.0219598
0.0197963
0.0278823
0.0302977
0.0315822
0.0325291
0.032939
0.0325739
0.0310105
0.0266242
0.0220707
0.0206911
0.0276217
0.0304645
0.0325209
0.0332463
0.0332938
0.0326841
0.0309531
0.0266111
0.0229418
0.0229527
0.0266456
0.0300346
0.0325099
0.0335123
0.0336993
0.0329637
0.0313942
0.0273689
0.0247956
0.0263547
0.0247936
0.0289316
0.0320444
0.0334061
0.0337416
0.0334838
0.0322923
0.0292273
0.0268423
0.0276526
0.022803
0.026741
0.0308733
0.0330484
0.0337097
0.0338447
0.03351
0.0327033
0.0315613
0.0314674
0.0218622
0.0227244
0.023645
0.0252156
0.0274637
0.0309169
0.0343301
0.0345698
0.0298316
0.0277958
0.0239917
0.0247456
0.026158
0.028339
0.0317486
0.0332765
0.0333846
0.0298738
0.0247157
0.0229725
0.0260459
0.0268442
0.0288575
0.0314113
0.0328238
0.032786
0.0308046
0.0244948
0.0217971
0.0204547
0.0280668
0.0290278
0.0312325
0.03242
0.0325592
0.031458
0.0267303
0.0220737
0.0203582
0.0194075
0.0297636
0.030806
0.032086
0.0323343
0.031852
0.0293298
0.0237707
0.0212114
0.0202606
0.0196215
0.0308918
0.0318661
0.0322712
0.0321466
0.0309458
0.0271287
0.0227071
0.0212072
0.0207281
0.0214465
0.0315852
0.0322174
0.0323143
0.03191
0.0299355
0.0258191
0.0226144
0.0215454
0.0221623
0.0247164
0.0317233
0.0323478
0.0324173
0.0319571
0.0300529
0.025936
0.0229413
0.0222537
0.0231545
0.0266664
0.0314846
0.0322403
0.0324089
0.0321489
0.0304446
0.0266927
0.0238307
0.0230675
0.0238371
0.0271098
0.0311785
0.0320716
0.032309
0.0323042
0.0313057
0.0285802
0.0260275
0.024852
0.0254529
0.0272583
0.0302335
0.0304806
0.0297094
0.0287834
0.0275627
0.0264971
0.0254094
0.0245354
0.02387
0.0235587
0.0289399
0.0288556
0.0275643
0.0268012
0.0256045
0.0244512
0.023404
0.0224956
0.0217192
0.0211171
0.0282465
0.0277738
0.0266519
0.0257679
0.0243733
0.0233166
0.0221815
0.0213594
0.0208637
0.0201641
0.0280209
0.0273517
0.0262393
0.024772
0.0231447
0.0217649
0.020823
0.020455
0.0202844
0.0201637
0.0282311
0.0274851
0.0259129
0.0239421
0.0220492
0.0208479
0.0204639
0.0205119
0.0214215
0.0218193
0.0286577
0.0277506
0.0258699
0.0235427
0.0214457
0.0204709
0.0202489
0.0210151
0.0226528
0.0236383
0.0292342
0.0281655
0.0260614
0.0236476
0.0212851
0.0201955
0.0199602
0.0208672
0.0228563
0.0245333
0.0297486
0.0286999
0.0265977
0.0241189
0.0216481
0.0202805
0.01974
0.0201801
0.0222127
0.0248493
0.0299341
0.0292643
0.0275009
0.0252418
0.0227045
0.0209216
0.0200883
0.0203222
0.0212419
0.0244673
0.0300055
0.0298326
0.0283911
0.026785
0.0250279
0.0229694
0.0218234
0.0223492
0.0235111
0.0259024
0.0278266
0.0282926
0.0274861
0.0271296
0.0265127
0.0259186
0.0250997
0.0245075
0.0238356
0.023385
0.0262084
0.0262348
0.0251071
0.0245796
0.0236744
0.0232609
0.0228749
0.0226723
0.0223229
0.0220538
0.024388
0.0238201
0.0224314
0.0218131
0.0213684
0.0212163
0.0212455
0.0214866
0.0215882
0.021528
0.0234265
0.0222506
0.0207236
0.0200276
0.0196648
0.0195933
0.020142
0.0208786
0.0215264
0.0218334
0.0233662
0.021414
0.0197833
0.0189618
0.0185744
0.0185245
0.0193496
0.0206219
0.0219897
0.0226333
0.0236479
0.0216349
0.01979
0.0185093
0.0179448
0.0178294
0.0183181
0.0198116
0.0220139
0.0230412
0.0244145
0.0223124
0.0202186
0.0188394
0.0180187
0.0177527
0.0179826
0.0189868
0.020936
0.0230626
0.0256011
0.0232991
0.0212552
0.0198381
0.0189905
0.0184467
0.0185351
0.0189915
0.02031
0.0228828
0.0264836
0.0244957
0.0227187
0.0215945
0.0211118
0.0203951
0.0202354
0.0205722
0.0214485
0.0235572
0.0273423
0.0253549
0.0240423
0.0238227
0.0238834
0.0227551
0.0224578
0.0228503
0.0234627
0.0246998
0.0271466
0.0278417
0.0279692
0.0279277
0.0276648
0.027294
0.0268215
0.0262088
0.025611
0.0251042
0.0249095
0.0252752
0.0253512
0.0252453
0.0251006
0.0248556
0.0245059
0.0240187
0.023386
0.0227174
0.023349
0.0231862
0.022871
0.0226769
0.022574
0.0225461
0.0225116
0.022412
0.0221444
0.0217062
0.0220242
0.0212867
0.0208789
0.0204523
0.0202578
0.0202321
0.0204738
0.0208753
0.0211232
0.0211978
0.0215534
0.0202922
0.0196978
0.0191749
0.01891
0.018861
0.0192261
0.01987
0.0208364
0.021415
0.0217001
0.0202977
0.0192077
0.0185591
0.0181907
0.0181177
0.0184011
0.0190334
0.0202932
0.021609
0.0226506
0.0207827
0.0194001
0.0185045
0.0180364
0.017935
0.0181321
0.0187346
0.0198656
0.0216664
0.0237948
0.021766
0.0199718
0.0189245
0.0184691
0.0184525
0.0186173
0.0191156
0.0199471
0.0217248
0.0242448
0.0226294
0.0209091
0.0198265
0.0197944
0.019892
0.0201604
0.0206854
0.0212926
0.0225238
0.0247214
0.0233731
0.0217183
0.0215765
0.0220665
0.0220398
0.0219298
0.0220937
0.0223403
0.0228692
0.0296134
0.0309917
0.0315244
0.031938
0.0320422
0.0319085
0.0312695
0.0305623
0.0297078
0.0289272
0.0274926
0.0282692
0.0286309
0.0288175
0.0288581
0.0284019
0.0277546
0.0267779
0.0258837
0.0249101
0.0264733
0.0268421
0.0270021
0.0270728
0.0270105
0.0266566
0.0261114
0.0253099
0.0244599
0.0233899
0.0247631
0.0248196
0.0247879
0.0246951
0.0245823
0.0243872
0.0241102
0.0237862
0.0232805
0.0223739
0.0233252
0.0230135
0.0227729
0.0224692
0.0221643
0.0218471
0.0215812
0.0214848
0.0214457
0.0214011
0.0224671
0.021901
0.0213918
0.020994
0.0206278
0.0202382
0.0198881
0.0197526
0.0198497
0.0206051
0.0230341
0.0218416
0.0208344
0.0201159
0.0196337
0.019321
0.0190982
0.019044
0.0191164
0.0199388
0.0237292
0.0225105
0.0209995
0.0199157
0.0193048
0.0190042
0.0189196
0.0189766
0.0191494
0.0198949
0.0239359
0.0232885
0.0215938
0.020238
0.0197737
0.0195205
0.0195429
0.0196847
0.0200288
0.0212972
0.0239772
0.0235979
0.0222443
0.0210433
0.0209507
0.0207599
0.0205403
0.0206036
0.0208197
0.0219376
0.0259584
0.0257701
0.0234321
0.0222174
0.021647
0.0215307
0.0223896
0.024732
0.0300515
0.0326825
0.0286995
0.027354
0.0261057
0.0253028
0.0250314
0.0260103
0.0284347
0.0301109
0.0305306
0.0297314
0.0295875
0.0293424
0.0288342
0.0286562
0.0289633
0.0295073
0.0297223
0.0296949
0.0278598
0.0239585
0.0297213
0.0298068
0.0295613
0.0294786
0.0294705
0.0294481
0.0291487
0.0272452
0.0235265
0.0218366
0.0290827
0.0296762
0.0295745
0.0293517
0.0291953
0.0287041
0.027175
0.0241952
0.0220683
0.021048
0.0275583
0.0287438
0.0289387
0.0287305
0.0281209
0.0269638
0.0249992
0.022588
0.0213621
0.0209366
0.0266551
0.0274282
0.0277633
0.0276896
0.0270858
0.0258437
0.0238446
0.0215944
0.0205471
0.0205091
0.026397
0.0262988
0.026603
0.0265798
0.0262624
0.0253088
0.0237447
0.0217246
0.0203805
0.0202974
0.026377
0.0258702
0.0255205
0.0253574
0.0251415
0.0246944
0.0238487
0.0221491
0.0207042
0.0209751
0.0252343
0.0260549
0.02487
0.0243401
0.0243241
0.0241826
0.0238406
0.0229882
0.021545
0.021875
0.0346248
0.0342919
0.0320145
0.0298945
0.0289129
0.0296853
0.0295899
0.0283314
0.0270266
0.0244099
0.0328287
0.0309128
0.0292194
0.0277665
0.0272406
0.0275303
0.028579
0.0289306
0.0285945
0.0275894
0.0307672
0.0295457
0.0282075
0.0270278
0.0267164
0.0269798
0.0278055
0.0286292
0.0283679
0.0274758
0.0290932
0.0285005
0.0271895
0.0263612
0.0262944
0.0266642
0.0274586
0.0277535
0.0275667
0.0267998
0.0285265
0.0280261
0.0267039
0.0260863
0.0260865
0.0265182
0.0267276
0.0266273
0.026264
0.0259826
0.0283425
0.0273391
0.0260608
0.0257676
0.025846
0.0259819
0.0258271
0.0258437
0.0256427
0.0255054
0.0281748
0.0268474
0.0257347
0.0254641
0.0254724
0.0253666
0.0251559
0.0251073
0.0250231
0.0250268
0.0275382
0.026652
0.0255472
0.0251367
0.025095
0.02488
0.0245898
0.0245511
0.0243596
0.0240694
0.0265502
0.0266669
0.0254559
0.0247646
0.0245381
0.0243554
0.0240435
0.0239804
0.0238118
0.0240738
0.0251038
0.0260116
0.0253634
0.0244401
0.0241607
0.0240133
0.0238786
0.023943
0.0239705
0.0244043
0.0371019
0.0361835
0.0345962
0.032097
0.0292382
0.0272881
0.0264859
0.026494
0.0265817
0.0266512
0.0335575
0.0317866
0.030074
0.0279972
0.0261114
0.0247444
0.0242956
0.0243288
0.0246246
0.0248266
0.0308487
0.0299288
0.0283657
0.0264291
0.0247721
0.0235073
0.0228905
0.0230149
0.0234815
0.0239325
0.0297818
0.0290185
0.0269899
0.0248647
0.0231925
0.0222355
0.022133
0.0224551
0.0231026
0.0237508
0.0293344
0.0282974
0.0257226
0.0237699
0.0224079
0.0217611
0.0219255
0.0223889
0.0230694
0.0238749
0.0290799
0.0273136
0.0249372
0.0231395
0.0219876
0.0216402
0.0219307
0.0224973
0.0231889
0.0240087
0.0284652
0.0268112
0.0246243
0.0228519
0.0218444
0.0216343
0.0220236
0.0225787
0.0232267
0.0239013
0.0278861
0.026596
0.0245415
0.0227604
0.0218478
0.0217545
0.022168
0.0227686
0.0233056
0.0237675
0.0272214
0.0264488
0.0245508
0.0229431
0.0221995
0.0221017
0.0225388
0.0231974
0.0237804
0.0245612
0.0265162
0.0258512
0.0243234
0.0231866
0.0227476
0.022846
0.0233197
0.0240051
0.0246967
0.0249787
0.030836
0.0287992
0.0264743
0.0248593
0.0237148
0.022668
0.0219993
0.0220583
0.0225077
0.023059
0.0311088
0.0289285
0.0259775
0.0238012
0.0222517
0.0213018
0.0208837
0.0209481
0.0213297
0.0215727
0.0303514
0.0278149
0.0246454
0.0223285
0.0208353
0.0200462
0.0198443
0.0199582
0.0203501
0.0206646
0.030028
0.027271
0.0238154
0.0212252
0.0198212
0.0191925
0.0191173
0.0192878
0.0197446
0.0202768
0.029441
0.0261504
0.0227871
0.0204881
0.0193318
0.0188388
0.0188191
0.01903
0.0194952
0.0202004
0.0288661
0.0255195
0.0223077
0.0201746
0.0191625
0.0187576
0.0187663
0.0190225
0.019496
0.020269
0.0281136
0.0249219
0.0220845
0.0200947
0.0192422
0.0190167
0.0190132
0.0191775
0.0196176
0.0204786
0.0274724
0.0245584
0.0220253
0.0203718
0.019855
0.0197713
0.0196765
0.0196182
0.0199508
0.020852
0.0270175
0.0241443
0.0220694
0.0209009
0.0206495
0.020939
0.020867
0.0207348
0.0209642
0.0216961
0.0266472
0.0237468
0.0220591
0.0213492
0.0214247
0.0221795
0.0223609
0.0222604
0.0220796
0.0221949
0.0299679
0.027232
0.0249378
0.0231713
0.0220328
0.0209578
0.0201701
0.0204788
0.0214959
0.0229561
0.0306942
0.027647
0.0248795
0.0226308
0.0212035
0.0202147
0.019562
0.0196216
0.0200936
0.0205192
0.0305614
0.0270935
0.0239888
0.021689
0.0203678
0.0195206
0.0190226
0.0190035
0.0192147
0.0195425
0.0301305
0.0267595
0.0235883
0.0212052
0.0199186
0.019181
0.0187446
0.0185825
0.0186968
0.0190126
0.0296893
0.0260368
0.0230077
0.020824
0.0197059
0.0190492
0.0186587
0.0184527
0.0185138
0.0188648
0.0290549
0.0255638
0.0227157
0.0206875
0.0196687
0.0191174
0.018753
0.0185303
0.018586
0.0190399
0.0284648
0.024841
0.0223951
0.0206726
0.0200068
0.0196295
0.0191816
0.0188568
0.0188518
0.0193118
0.0277044
0.0243009
0.0222328
0.0209525
0.0206783
0.0205292
0.0200539
0.0195679
0.0194241
0.0196174
0.0271548
0.0236619
0.0219916
0.0212331
0.0214463
0.0215783
0.0213112
0.0208831
0.0208068
0.0211953
0.0266924
0.0230786
0.0217156
0.0213636
0.021952
0.0222511
0.0222366
0.0219942
0.0218223
0.0214056
0.0320764
0.0303659
0.0284972
0.0270453
0.0260682
0.0252092
0.0247673
0.0244579
0.0242564
0.0230677
0.0333497
0.0312943
0.0289209
0.0270442
0.0259019
0.0250526
0.0244782
0.0241192
0.02341
0.0234294
0.0336584
0.0317436
0.0294912
0.0274609
0.0259989
0.0250161
0.0242398
0.0234938
0.0228098
0.0215705
0.0337047
0.0320019
0.0301863
0.0281706
0.0266625
0.0252566
0.0241282
0.0230956
0.0219762
0.0204056
0.0332838
0.0320829
0.0306086
0.0287539
0.0271723
0.0255847
0.0240684
0.0229118
0.0215963
0.0196392
0.0326374
0.0319508
0.030872
0.0294883
0.0278825
0.0261515
0.0243451
0.0228893
0.0214853
0.019492
0.0318545
0.0311921
0.030928
0.0298491
0.0285787
0.0269034
0.0249811
0.0234061
0.0220948
0.020205
0.0312579
0.0300974
0.030435
0.0300081
0.0289992
0.0277509
0.0257055
0.0239365
0.0228353
0.021608
0.0310574
0.0284809
0.0291895
0.0299458
0.0291648
0.0284277
0.0269858
0.0246634
0.0232708
0.0222755
0.0309815
0.0271182
0.0273653
0.02906
0.0291351
0.0286851
0.028115
0.0269544
0.0251142
0.0238842
0.0308116
0.0291422
0.028037
0.0271996
0.0263649
0.025471
0.0244528
0.0234276
0.0231496
0.0234244
0.030523
0.0295044
0.0283923
0.0274394
0.0263829
0.0253048
0.0240944
0.0230346
0.0226325
0.0228882
0.0304507
0.0295469
0.0284615
0.0275389
0.0264209
0.025268
0.0239666
0.0228498
0.0223666
0.022212
0.030496
0.0293765
0.0283867
0.0275841
0.0265399
0.0252952
0.023896
0.0226342
0.0219102
0.0214493
0.030322
0.0290894
0.0281053
0.0275647
0.0267082
0.0254803
0.0238746
0.0225318
0.0216986
0.0209339
0.0298325
0.0287189
0.0278002
0.0274849
0.0269324
0.0257866
0.0239976
0.022493
0.0216075
0.0206444
0.0295086
0.028171
0.0273443
0.0273116
0.0270721
0.0261669
0.0242494
0.0225479
0.021686
0.0208027
0.0291554
0.0275913
0.026836
0.027002
0.0270966
0.0263687
0.0246508
0.0228021
0.0220512
0.0215045
0.0289814
0.0270196
0.0261436
0.0265608
0.0269657
0.0264216
0.0248543
0.023021
0.0221934
0.021292
0.0289197
0.0266023
0.0255224
0.0260119
0.0264944
0.0262912
0.024917
0.023244
0.02209
0.0207549
0.0267186
0.0247628
0.0235531
0.0231225
0.0230246
0.0231031
0.0234669
0.0244505
0.0246761
0.0246914
0.0265219
0.0253314
0.0243952
0.0239575
0.0238403
0.0238831
0.0241744
0.0248842
0.0252191
0.0263334
0.0279461
0.0263156
0.0254084
0.0248159
0.024578
0.0245502
0.0249988
0.0259389
0.0269378
0.0278342
0.029334
0.0276762
0.0263889
0.0257327
0.0254754
0.0256723
0.026409
0.0271206
0.0273843
0.0271934
0.0302469
0.0289213
0.0274263
0.0266954
0.0263953
0.0265751
0.0270338
0.0271869
0.0270614
0.0248304
0.0307018
0.0300685
0.0285615
0.0276002
0.0271481
0.0270323
0.0270538
0.0270096
0.0260946
0.0236502
0.0308862
0.0308131
0.0298086
0.0285683
0.0277335
0.0272102
0.0269673
0.0264994
0.0251448
0.0233543
0.0308261
0.0309741
0.0305979
0.029409
0.0283998
0.0274303
0.0266976
0.0259939
0.0245172
0.0227954
0.0309052
0.0309626
0.0307979
0.0301342
0.0291129
0.0278449
0.0267756
0.0255094
0.0237616
0.0227609
0.031073
0.0311846
0.0307811
0.0302687
0.0296233
0.0286718
0.0272981
0.0257009
0.0238974
0.0234012
0.0210304
0.0210081
0.0197951
0.0191843
0.0187911
0.0192006
0.0202204
0.0214786
0.0224577
0.0230237
0.0220613
0.0207883
0.0197497
0.0194128
0.0193452
0.0199626
0.0209922
0.0220053
0.0231865
0.0247281
0.0228304
0.0210821
0.0203188
0.0201085
0.0201242
0.0207439
0.0215999
0.0230658
0.0243672
0.024786
0.0236409
0.0220633
0.0213045
0.0210582
0.0211483
0.0215549
0.0229081
0.0241283
0.0245555
0.023898
0.0241114
0.0231428
0.0225594
0.0223823
0.0224324
0.0232701
0.0242808
0.0246076
0.0244409
0.0224786
0.0245469
0.0239871
0.0237033
0.0236182
0.0239534
0.0243738
0.0245785
0.0247108
0.0241198
0.0213553
0.0247495
0.0246317
0.0244711
0.024608
0.0248244
0.024924
0.0250443
0.0246909
0.0234362
0.021045
0.024863
0.0251966
0.0252618
0.0254442
0.0254978
0.0254328
0.025236
0.0247297
0.0233106
0.0209481
0.0248126
0.0258687
0.0260313
0.0261605
0.0261266
0.0257936
0.0255419
0.0249088
0.0234489
0.0210115
0.0251987
0.0262968
0.0264435
0.0267677
0.026806
0.0265366
0.0262503
0.0255212
0.0238893
0.0213049
0.01492
0.0149876
0.0160811
0.0184558
0.0193698
0.0204709
0.0212459
0.0195445
0.0157647
0.0142915
0.0147992
0.0151989
0.016836
0.0187293
0.0192909
0.0204994
0.0208584
0.019367
0.0172694
0.0151835
0.0166837
0.0174335
0.0188973
0.0188228
0.0191756
0.0201385
0.0202866
0.0191173
0.0167177
0.0151022
0.016999
0.0189805
0.0187608
0.018557
0.0188507
0.0193163
0.0190403
0.0173703
0.0165068
0.0151499
0.016157
0.0182059
0.0177024
0.0176412
0.0175391
0.0173227
0.0168489
0.0162154
0.0163732
0.0153108
0.0159483
0.0171301
0.0165244
0.0163302
0.0163306
0.016104
0.0160894
0.016233
0.0167384
0.0151985
0.0157203
0.0177501
0.0172443
0.0170121
0.0167178
0.0166346
0.0164046
0.016453
0.0159856
0.0148899
0.0153318
0.0171055
0.0172566
0.0172331
0.0168798
0.0167052
0.0164336
0.0163081
0.0153656
0.0147832
0.0149116
0.0170301
0.0168548
0.0166316
0.0167789
0.0169333
0.0168809
0.0163081
0.0153519
0.0149367
0.0148773
0.0164805
0.0164113
0.0162118
0.0164047
0.01705
0.0169371
0.0161857
0.0153057
0.0151344
0.0129405
0.0133548
0.0134881
0.01356
0.0132802
0.0124984
0.0115524
0.0111939
0.0110919
0.0110786
0.0130379
0.013345
0.01342
0.013267
0.0127272
0.0117738
0.0113158
0.0111948
0.0112403
0.0110079
0.0131018
0.0133
0.0133171
0.0129862
0.0122974
0.0115032
0.0112265
0.0111629
0.0110199
0.0109888
0.0130954
0.0132027
0.013095
0.0127157
0.0120932
0.0115078
0.0112345
0.0111462
0.0110672
0.0111027
0.0130572
0.013101
0.0129553
0.0125951
0.0121054
0.0115815
0.0113447
0.0111969
0.0112229
0.0112719
0.0129749
0.012978
0.012745
0.0124713
0.0121531
0.0117478
0.0115711
0.011493
0.0114692
0.01134
0.0128431
0.0127957
0.0125988
0.0123409
0.0121515
0.011978
0.0117881
0.0117016
0.0115172
0.0111377
0.0127133
0.012648
0.0122867
0.0114201
0.0115243
0.0117003
0.0116763
0.0116065
0.0111154
0.0109771
0.0125999
0.012005
0.0111673
0.0110338
0.0110268
0.0112104
0.0112871
0.0111054
0.0109915
0.0109444
0.0123122
0.0116903
0.0110539
0.0110975
0.0110438
0.0112022
0.0111425
0.0108106
0.0106855
0.0105241
0.0136686
0.0139465
0.0140516
0.0141409
0.0141568
0.0141565
0.0139639
0.0134022
0.0123743
0.0117903
0.0136017
0.0137369
0.0137654
0.0137745
0.0136994
0.0134037
0.0126796
0.0119906
0.0115109
0.0113306
0.0133746
0.0133829
0.0133296
0.0131431
0.012636
0.0120334
0.0115404
0.0111786
0.0110233
0.0109951
0.0129063
0.0127464
0.0123651
0.0118786
0.0115061
0.0111371
0.0108547
0.0107232
0.0106824
0.0108293
0.0118836
0.0116116
0.0112033
0.0109925
0.0106929
0.0105458
0.0104271
0.0103806
0.0104222
0.0105307
0.0109775
0.0107574
0.0104831
0.0103325
0.010168
0.0101119
0.0100553
0.0100849
0.0101817
0.0102525
0.0103411
0.0100931
0.00985585
0.00971016
0.00964134
0.0096483
0.00974407
0.00988106
0.00997265
0.00993986
0.0098757
0.00970267
0.00955613
0.00950179
0.00948465
0.00946878
0.00959027
0.00974242
0.00975976
0.00976552
0.0097418
0.00961679
0.00955148
0.00954484
0.0095537
0.00949563
0.00949455
0.00963266
0.00966722
0.00963755
0.00987815
0.00963532
0.00955889
0.00959469
0.00959846
0.00950583
0.00947534
0.00959707
0.00959922
0.00924865
0.0108844
0.0106642
0.0106031
0.0105478
0.0105441
0.0106642
0.0108541
0.0110164
0.0111708
0.0114068
0.010812
0.0105686
0.0104338
0.0103853
0.0104312
0.0105964
0.0107208
0.0108985
0.0111691
0.0116404
0.0107929
0.0105309
0.0103809
0.0102942
0.0103494
0.0104802
0.0106352
0.0108587
0.0111789
0.0117316
0.0108054
0.0105232
0.0103931
0.0103106
0.0103091
0.0104011
0.0105866
0.0108219
0.0110812
0.011423
0.0108743
0.0105893
0.0103962
0.0102951
0.0102478
0.0103124
0.010478
0.0106727
0.0108151
0.0108299
0.0108749
0.0106142
0.0104352
0.0102933
0.0102043
0.0102107
0.0102795
0.0103811
0.0103665
0.0101606
0.0108368
0.010611
0.0104251
0.0102769
0.0101469
0.0100952
0.0100433
0.0100052
0.00988522
0.00967419
0.010622
0.0105369
0.0103813
0.010221
0.0101121
0.00996481
0.00985154
0.00967911
0.00954584
0.00944181
0.0104195
0.0103723
0.0102799
0.0101539
0.0100419
0.00991572
0.00972849
0.00950865
0.00939708
0.00935292
0.0101163
0.0101072
0.0100754
0.0100089
0.00993392
0.00984201
0.00964363
0.00943068
0.00933181
0.00931704
0.0166669
0.0169226
0.0172329
0.0174691
0.017685
0.0180184
0.0184938
0.0193911
0.0213069
0.0212571
0.0168704
0.0170715
0.0174046
0.0177601
0.018067
0.0184462
0.0188444
0.0198012
0.0216174
0.0218016
0.017375
0.0173825
0.0175422
0.0179047
0.0183644
0.0187952
0.0193517
0.020541
0.0221793
0.0221081
0.0180888
0.017938
0.0178504
0.0180699
0.0185893
0.0192553
0.01989
0.0212555
0.0225789
0.0223156
0.0187214
0.0186189
0.0184068
0.0185652
0.0191087
0.0199521
0.0211111
0.0223497
0.0226066
0.0222231
0.0198172
0.0196899
0.0196539
0.019833
0.0205148
0.0214736
0.0225094
0.0227468
0.0224302
0.0218865
0.0211619
0.0211262
0.0213348
0.0217925
0.0223323
0.0226913
0.0226149
0.0223623
0.0219332
0.0211085
0.0219202
0.0220104
0.0222909
0.0223769
0.0222839
0.0222561
0.0220331
0.021565
0.0209445
0.0202361
0.0209012
0.0210691
0.0213213
0.0214374
0.021406
0.0211696
0.0208597
0.0204764
0.0200154
0.0195104
0.0190776
0.0195819
0.0199804
0.0202062
0.0202878
0.0202401
0.0199854
0.0196367
0.0192159
0.0187075
0.0162153
0.0165424
0.0167764
0.0169662
0.0170699
0.0171821
0.0173635
0.0176221
0.0181165
0.0191357
0.0162511
0.0164173
0.0167615
0.0169833
0.0172399
0.0173867
0.0175686
0.0177927
0.0182521
0.019382
0.0164849
0.0165365
0.0167228
0.0170496
0.0173383
0.0176172
0.0179042
0.0182817
0.0187561
0.0198582
0.0169431
0.0169022
0.0169265
0.0170761
0.0173682
0.0177404
0.0181382
0.0187085
0.0192871
0.0203938
0.0173339
0.0173265
0.0173039
0.0173305
0.0174683
0.0178521
0.0184563
0.0191591
0.0199606
0.0209017
0.0178973
0.0179395
0.0179448
0.0179309
0.0179815
0.0183192
0.0189883
0.0197979
0.0206717
0.0210251
0.0188331
0.0188269
0.0188279
0.0188895
0.0190771
0.0194747
0.0200628
0.0207066
0.020988
0.0208349
0.0195139
0.0195174
0.0195729
0.0197401
0.0200278
0.0204148
0.0207239
0.0207769
0.0206484
0.0202628
0.019608
0.0196717
0.0198584
0.0200676
0.0202333
0.0203407
0.0203616
0.0202551
0.0199134
0.019502
0.0186659
0.0189762
0.0193504
0.0195703
0.0196747
0.0196457
0.0194784
0.0192602
0.0189505
0.0186657
0.0162309
0.0165072
0.0168033
0.0169898
0.0170937
0.0171174
0.0171488
0.0171963
0.0172935
0.0175646
0.0160376
0.0161308
0.0164172
0.0167415
0.01692
0.0170956
0.0171656
0.0172431
0.0173273
0.017635
0.0161033
0.0161449
0.0162983
0.0166135
0.0169257
0.0171293
0.017297
0.017535
0.0176488
0.0180299
0.0163698
0.016377
0.0164398
0.0166254
0.0168987
0.0171721
0.0174113
0.0177121
0.0179202
0.018415
0.0166348
0.0166917
0.0167474
0.0168086
0.0169948
0.0171982
0.0174464
0.0178159
0.0181927
0.0187652
0.0169213
0.0170314
0.0171233
0.0171994
0.0172969
0.0174111
0.0175937
0.0179832
0.0185054
0.0189674
0.0174367
0.0175664
0.0176416
0.0177174
0.0178007
0.0179166
0.0181225
0.0184618
0.0188582
0.0191982
0.0179535
0.018014
0.0180652
0.0181146
0.0181949
0.0183449
0.0186099
0.0188499
0.0191134
0.0193122
0.0181572
0.01815
0.0181902
0.0182739
0.0183841
0.0184837
0.0186935
0.0188919
0.0189685
0.0190321
0.0179745
0.0179399
0.0180116
0.0181184
0.018218
0.0182733
0.0183329
0.0184026
0.0183451
0.0183797
0.0165089
0.016743
0.0170984
0.0172863
0.0173733
0.0173579
0.0173063
0.0172265
0.0171396
0.0170602
0.0160698
0.0161484
0.0164417
0.0167417
0.0169156
0.0169967
0.0170963
0.0170916
0.0170574
0.0170796
0.015946
0.0159799
0.0161323
0.0164476
0.0167259
0.0168727
0.0170272
0.0171291
0.0171592
0.0173319
0.0160163
0.0160687
0.0161913
0.0164276
0.0166836
0.0168871
0.0170789
0.0172725
0.017354
0.0175647
0.0161932
0.0163242
0.0164384
0.0165718
0.0167643
0.0169584
0.0171169
0.0173081
0.0174396
0.0177146
0.0163699
0.0165583
0.0167247
0.0168694
0.0169946
0.0171695
0.0172757
0.0173657
0.0175081
0.0177881
0.016659
0.0168699
0.017035
0.0171596
0.0172586
0.0173794
0.0174721
0.0175417
0.017685
0.0179142
0.0170157
0.0171549
0.0172538
0.017321
0.0173875
0.0174393
0.0175233
0.0176362
0.0178018
0.0180277
0.0172311
0.0172924
0.0173203
0.0173547
0.0173996
0.0174464
0.0175107
0.0176422
0.0177436
0.0179295
0.0174306
0.0173359
0.0173293
0.0173449
0.01736
0.0173652
0.017372
0.0174442
0.0174659
0.0176142
0.0171626
0.0173538
0.0177869
0.0179923
0.0180347
0.0179557
0.0177513
0.0174596
0.0172139
0.0169067
0.0163051
0.0163476
0.01664
0.0169386
0.0170974
0.0171309
0.0171206
0.0170517
0.0168674
0.016836
0.015949
0.0159638
0.0161434
0.016473
0.0166892
0.0167812
0.0168283
0.0168663
0.0168491
0.0169025
0.0157853
0.0158712
0.0160755
0.0163309
0.0165773
0.0167403
0.0168306
0.016917
0.0169617
0.0170732
0.0158333
0.0160065
0.0162056
0.0164191
0.0166342
0.0168243
0.0169201
0.0170157
0.0170774
0.0171625
0.0159565
0.0161945
0.0164297
0.0166511
0.0168164
0.0170036
0.0170891
0.0171236
0.017176
0.0172158
0.0161231
0.0163967
0.0166259
0.0168237
0.0169622
0.0170609
0.0171273
0.0171744
0.0172056
0.0172477
0.0163713
0.016582
0.0167532
0.0168835
0.0169719
0.0170376
0.0170748
0.0171285
0.0171669
0.0172595
0.0165517
0.0167054
0.0168256
0.0169103
0.0169577
0.0169672
0.0169638
0.0170146
0.0170604
0.0172048
0.016948
0.0169383
0.0169613
0.0170228
0.0170291
0.0170071
0.01692
0.0169125
0.0169053
0.0170296
0.0184451
0.018411
0.0187771
0.0189706
0.0189197
0.0187096
0.018374
0.0178617
0.01734
0.0168036
0.016999
0.0168597
0.0170864
0.0173937
0.0174865
0.0174412
0.0172772
0.0171
0.0168255
0.0166632
0.0161767
0.0161206
0.0162736
0.016581
0.0167431
0.016758
0.0167245
0.0166646
0.0165425
0.0165319
0.0157666
0.0158012
0.0160118
0.0163046
0.0165116
0.0166002
0.0166119
0.0166202
0.0165964
0.016618
0.0155866
0.0157732
0.0160319
0.0162973
0.0165404
0.0166742
0.0166967
0.0167032
0.0166875
0.0167052
0.0156272
0.0159134
0.0162024
0.016464
0.0166588
0.0168358
0.0168767
0.0168849
0.0168805