/*--------------------------------*- C++ -*----------------------------------*\
  =========                 |
  \\      /  F ield         | OpenFOAM: The Open Source CFD Toolbox
   \\    /   O peration     | Website:  https://openfoam.org
    \\  /    A nd           | Version:  9
     \\/     M anipulation  |
\*---------------------------------------------------------------------------*/
FoamFile
{
    format      ascii;
    class       volScalarField;
    location    "80";
    object      f11.gas;
}
// * * * * * * * * * * * * * * * * * * * * * * * * * * * * * * * * * * * * * //

dimensions      [0 0 0 0 0 0 0];

internalField   nonuniform List<scalar> 
137980
(
0.0189166
0.018801
0.0189179
0.0194382
0.0201485
0.0210999
0.0224839
0.0249169
0.0263888
0.0294407
0.0187124
0.0186782
0.0189981
0.0196844
0.0205876
0.0217448
0.0233865
0.0260852
0.0283388
0.0303038
0.0185373
0.0185307
0.0189565
0.0197635
0.0207891
0.0220998
0.0238406
0.0265263
0.0294626
0.0306906
0.018266
0.0182855
0.0187614
0.0196276
0.0207664
0.0222182
0.0240072
0.0264026
0.0293031
0.0304732
0.0179334
0.0179744
0.0184562
0.0193045
0.0204678
0.0220277
0.0238474
0.0260002
0.0284223
0.0295702
0.017701
0.017709
0.0180962
0.0188373
0.0198962
0.0214005
0.0232978
0.0252945
0.0272567
0.0282239
0.0177244
0.0176324
0.0178173
0.0183261
0.0191713
0.0203836
0.0220287
0.0239417
0.0257864
0.0270617
0.0181763
0.0178069
0.0177646
0.017969
0.0185055
0.0193787
0.0205811
0.0220168
0.0233901
0.0246185
0.0191761
0.0183223
0.0179572
0.0179356
0.0180828
0.0186377
0.0195357
0.0207063
0.021865
0.0226288
0.0199646
0.0190731
0.0185105
0.0181436
0.0180483
0.0181466
0.0186944
0.0196835
0.0209974
0.0219406
0.018898
0.0188661
0.0191223
0.0198597
0.0210142
0.0227576
0.0257781
0.0274291
0.0267691
0.0302897
0.0187502
0.0188005
0.0193125
0.0203065
0.021739
0.0238414
0.0275544
0.0292265
0.0290965
0.0314739
0.0185972
0.0187121
0.0193712
0.020491
0.0220983
0.0245176
0.0285783
0.0310711
0.0315473
0.0328126
0.0183493
0.0185191
0.019243
0.0204634
0.022223
0.0248819
0.0292928
0.0328743
0.0337171
0.0339558
0.018092
0.0182555
0.0189596
0.0201599
0.0219744
0.0247253
0.0289456
0.033555
0.035383
0.0355258
0.0180133
0.0180738
0.018577
0.0196392
0.0213366
0.0239945
0.0278517
0.0329951
0.0354475
0.0362968
0.0183424
0.0181791
0.0182701
0.0189966
0.0203903
0.0226107
0.0258928
0.0307599
0.0345565
0.0359829
0.0195211
0.0186737
0.0183891
0.0185145
0.019405
0.0210455
0.0234984
0.0268084
0.0311582
0.0342915
0.0211405
0.0197415
0.0188784
0.0184615
0.0187121
0.019753
0.0214967
0.023864
0.0263639
0.0289152
0.0217367
0.0205927
0.0197073
0.0187901
0.0184697
0.0188013
0.0198095
0.0214782
0.0238357
0.0243195
0.0189391
0.0190421
0.0195871
0.0206975
0.02229
0.0248815
0.0284609
0.0290505
0.0272287
0.0320656
0.0188495
0.0191259
0.0200143
0.0214307
0.0235836
0.027333
0.0305348
0.0310298
0.0294359
0.032999
0.0187577
0.0191667
0.0202406
0.0219458
0.0245814
0.0289205
0.032099
0.0328257
0.0317335
0.0339785
0.0185901
0.0190988
0.0202881
0.0221655
0.0251509
0.0299785
0.0335415
0.0345333
0.0340239
0.0350559
0.0184715
0.0189344
0.0201001
0.0220674
0.0253033
0.0304399
0.0347095
0.0360093
0.0360286
0.0361739
0.018585
0.0188152
0.0197058
0.0215467
0.024766
0.0299114
0.0353716
0.03741
0.0377156
0.0374435
0.0191986
0.0189814
0.0193219
0.0207351
0.0235914
0.0283489
0.0349319
0.0383175
0.0394296
0.0387452
0.020634
0.0195009
0.0192805
0.0199819
0.0220806
0.0259971
0.0327291
0.0379453
0.0401313
0.040506
0.0219668
0.0206233
0.0196489
0.0196036
0.0207975
0.0236961
0.0286765
0.0358472
0.0392318
0.0406801
0.0223986
0.0214143
0.02044
0.0195635
0.0198748
0.0217787
0.0253929
0.0305728
0.03447
0.0341163
0.0191656
0.0196197
0.0206682
0.0222635
0.0248049
0.0295941
0.0309793
0.02918
0.0291195
0.0373487
0.0192791
0.0200786
0.0216103
0.0239716
0.0282763
0.032121
0.032932
0.0314364
0.031098
0.0386624
0.0193785
0.0204355
0.0223304
0.0252377
0.0300637
0.0335753
0.0345194
0.0334758
0.0329864
0.0391124
0.019425
0.0206048
0.0226884
0.025888
0.0309799
0.034622
0.0356869
0.0354386
0.0344034
0.0396567
0.0194798
0.0206262
0.0227344
0.0260596
0.0312467
0.0354103
0.03681
0.0369688
0.0357913
0.0396213
0.0196294
0.0205046
0.0223648
0.0256191
0.0307863
0.035817
0.0378398
0.0383213
0.0372186
0.0394327
0.0200674
0.0204203
0.0217882
0.0247045
0.0296714
0.0356603
0.0385069
0.0394796
0.0388816
0.0395334
0.0210043
0.0206142
0.0213346
0.023597
0.0279808
0.0347428
0.0386056
0.04021
0.0401227
0.040262
0.0218419
0.0211642
0.0211452
0.022603
0.0261274
0.0325875
0.0383486
0.0411438
0.0423175
0.0420597
0.0221844
0.0215638
0.0212932
0.021724
0.0244858
0.0303605
0.0367217
0.0404548
0.0424389
0.0419447
0.0203052
0.0215659
0.0241221
0.0265296
0.0291018
0.0300709
0.0287821
0.0284055
0.0370173
0.0426961
0.0210834
0.0232155
0.0271031
0.0304
0.0316331
0.0318208
0.0311405
0.0317561
0.0402409
0.0423736
0.0217632
0.0246631
0.0293364
0.0325359
0.0335758
0.0337593
0.0335244
0.0354252
0.0405198
0.0397924
0.0222902
0.0254027
0.0304557
0.0339762
0.0351214
0.0354396
0.0355835
0.037794
0.0406836
0.037993
0.022548
0.0256115
0.030633
0.0348482
0.0364589
0.0370319
0.0372496
0.0390117
0.0407065
0.0387417
0.0225478
0.0252481
0.0299696
0.0350129
0.0374559
0.0383459
0.0385653
0.0395774
0.0406841
0.0396854
0.0224154
0.0245108
0.0286314
0.0343758
0.0378034
0.0393939
0.0397653
0.0399608
0.0405953
0.0399087
0.0224075
0.0237672
0.026988
0.0327219
0.0374765
0.0397092
0.0406451
0.040717
0.0406987
0.0401152
0.0224606
0.0231317
0.0255416
0.0303113
0.0362829
0.0395062
0.0409912
0.0412659
0.0414521
0.0409785
0.022381
0.022772
0.0244118
0.0279488
0.0348458
0.0387555
0.0409156
0.0422206
0.0429958
0.0429925
0.0243895
0.0246537
0.0248513
0.0256839
0.0276276
0.0281415
0.0282844
0.0349866
0.0425868
0.0414994
0.0269234
0.0279209
0.0284605
0.029332
0.0301985
0.0306617
0.0337316
0.0393972
0.0404689
0.0320228
0.0293048
0.0305645
0.0311859
0.0320952
0.0330824
0.0349601
0.0378436
0.0386772
0.0344539
0.0258976
0.0310209
0.0326267
0.0334212
0.0344698
0.0359476
0.0373165
0.0377039
0.0365315
0.0272941
0.0230889
0.0322154
0.0343143
0.0353296
0.0365599
0.0375495
0.0378573
0.0371096
0.0327597
0.0254787
0.0230108
0.0326576
0.0355013
0.0369725
0.0379593
0.0383626
0.0378392
0.0359413
0.0308352
0.0256221
0.0240569
0.0323527
0.0356897
0.0380121
0.0387896
0.0388019
0.0380089
0.0359448
0.0308484
0.0266573
0.0267086
0.0312011
0.0351796
0.0380105
0.0391455
0.0393295
0.0384425
0.0365254
0.0317784
0.0288569
0.0307614
0.0290207
0.0338882
0.037481
0.0390428
0.0394348
0.0391018
0.0377066
0.0340151
0.031268
0.0322785
0.0266576
0.0313335
0.0361482
0.0386511
0.0394116
0.0395698
0.0392432
0.0382593
0.0369218
0.0368158
0.0255236
0.0265605
0.0276376
0.0294872
0.0321254
0.0360518
0.0396761
0.0398153
0.0344163
0.0321435
0.0280799
0.0289769
0.0306421
0.0332194
0.0370076
0.0385783
0.0385998
0.0344748
0.0286196
0.0266243
0.0305343
0.0314905
0.0338246
0.0367215
0.0381897
0.0380078
0.0356384
0.0283944
0.0253039
0.02376
0.032945
0.0340545
0.0365803
0.0377932
0.0378762
0.0364745
0.030968
0.0256384
0.0236728
0.0225724
0.0349231
0.0361311
0.0374983
0.0377166
0.037052
0.03403
0.027601
0.0246713
0.0235774
0.0228255
0.0362285
0.0372993
0.0377312
0.0375032
0.0359914
0.0314978
0.0263981
0.0246774
0.0241242
0.0249817
0.0369959
0.0376893
0.0377787
0.0372372
0.0348662
0.0300002
0.0263044
0.0250773
0.0258389
0.028877
0.0371463
0.0378426
0.0379022
0.0373061
0.0350264
0.0301468
0.0266927
0.0259222
0.027045
0.0312481
0.0368759
0.0377279
0.0379018
0.0375558
0.035524
0.031055
0.02775
0.0268917
0.0278515
0.0317529
0.0365133
0.0375324
0.0377987
0.0377815
0.0365921
0.033331
0.0303618
0.0290018
0.0297523
0.0319294
0.0351046
0.0353557
0.0344551
0.0333673
0.0319616
0.0307453
0.0294797
0.0284839
0.0277272
0.0273764
0.0336761
0.0335496
0.0320731
0.0311949
0.0297848
0.0284568
0.027252
0.0261766
0.0253041
0.024575
0.0329458
0.0323555
0.0311126
0.0300195
0.0283964
0.0271548
0.0258182
0.0248597
0.0242816
0.0234581
0.0327684
0.0319674
0.0306353
0.028884
0.0269616
0.0253142
0.0242243
0.0237974
0.0235994
0.0234579
0.0330466
0.0321581
0.0302729
0.0279154
0.025663
0.0242592
0.0238198
0.0238989
0.0249818
0.0254426
0.0335958
0.0325007
0.0302543
0.02745
0.024967
0.0238516
0.0236061
0.0245322
0.0264947
0.0276744
0.0342796
0.033003
0.0304901
0.0275932
0.0248099
0.0235506
0.0232828
0.0243494
0.0267209
0.0287509
0.0348742
0.0336355
0.0311394
0.0281727
0.0252365
0.0236516
0.0230241
0.0235452
0.0259336
0.0291234
0.0350956
0.0343178
0.0322136
0.0295216
0.0264875
0.024407
0.02343
0.0237045
0.0247721
0.0286155
0.0351714
0.0349695
0.0332707
0.031358
0.0292697
0.026845
0.0254634
0.0260648
0.0274243
0.0301048
0.0324572
0.0329723
0.0320057
0.0315823
0.0308697
0.0301837
0.0292152
0.0285146
0.0277209
0.0272002
0.0306325
0.0306519
0.0293098
0.0286847
0.0276008
0.0271048
0.0266438
0.0264097
0.0259967
0.02568
0.0284834
0.027807
0.0261663
0.0254388
0.0249156
0.0247374
0.0247721
0.0250591
0.0251791
0.0250736
0.0273731
0.0259562
0.0241679
0.0233487
0.0229243
0.0228416
0.0234975
0.0243786
0.0251589
0.0255225
0.0273144
0.0249958
0.023066
0.0220944
0.0216386
0.0215817
0.022561
0.0240667
0.025717
0.026502
0.0276681
0.0252717
0.0230853
0.0215611
0.0208895
0.0207542
0.0213291
0.0231054
0.0257242
0.0269635
0.0286132
0.0261036
0.0236075
0.0219601
0.020981
0.0206624
0.0209246
0.0221191
0.0243879
0.0269673
0.0300099
0.027287
0.0248562
0.0231596
0.0221435
0.0214919
0.0215874
0.022113
0.0236472
0.0266752
0.0310405
0.0287156
0.0266006
0.0252602
0.0246786
0.0238221
0.0236147
0.0239999
0.025009
0.0274198
0.0320428
0.0297082
0.0281432
0.0278881
0.0279679
0.0266165
0.0262442
0.0266927
0.0274243
0.0288501
0.0317382
0.0325129
0.0326404
0.0325288
0.0322146
0.0317343
0.0311741
0.0304246
0.0297264
0.0291292
0.0291517
0.0295653
0.0296426
0.0294898
0.0292924
0.0289957
0.0285584
0.0279879
0.0272294
0.0264496
0.027299
0.0271079
0.0267109
0.0264871
0.0263497
0.0263097
0.0262602
0.0261418
0.0258205
0.0253099
0.0257309
0.0248591
0.0243601
0.0238558
0.0236253
0.0235941
0.0238793
0.0243632
0.0246635
0.0247574
0.0251856
0.0236841
0.0229673
0.0223408
0.0220266
0.0219687
0.0224011
0.0231689
0.0243321
0.0250545
0.0253728
0.0237063
0.0223966
0.0216148
0.0211737
0.0210849
0.0214178
0.0221631
0.0236418
0.0252217
0.026499
0.0242862
0.0226347
0.0215621
0.0209968
0.0208729
0.0210999
0.0218065
0.0231356
0.0252399
0.0278266
0.0254418
0.0233213
0.0220679
0.0215207
0.0214978
0.0216881
0.0222722
0.0232463
0.0252885
0.0283459
0.0264384
0.0244263
0.0231426
0.0231034
0.0232199
0.0235324
0.0241498
0.0248613
0.0262863
0.028893
0.0273097
0.0253705
0.0252061
0.0257921
0.02576
0.0256188
0.0258066
0.0261069
0.026725
0.0346261
0.0361015
0.0366692
0.0370824
0.037178
0.0369526
0.0362246
0.0353702
0.0343898
0.0334867
0.0321962
0.033047
0.0334252
0.033598
0.0336208
0.0330272
0.0322891
0.0311299
0.0301101
0.0289514
0.0310124
0.0314362
0.0316087
0.0316806
0.0315607
0.0311336
0.0304672
0.0295278
0.0285203
0.027263
0.0289954
0.0290651
0.0290286
0.0289164
0.028773
0.0285297
0.0281827
0.0277865
0.0271751
0.0261003
0.0272854
0.0269137
0.0266298
0.0262799
0.025909
0.0255149
0.0252079
0.0250964
0.0250477
0.0249892
0.0262729
0.0255951
0.0249827
0.0245057
0.0240698
0.0236069
0.0231928
0.0230342
0.0231575
0.024033
0.0269443
0.0255292
0.0243248
0.0234659
0.0228889
0.0225156
0.0222504
0.0221849
0.0222753
0.0232334
0.0277364
0.0263226
0.0245277
0.0232363
0.0225058
0.0221468
0.0220456
0.0221118
0.0223175
0.0231782
0.0279567
0.0272104
0.0252344
0.0236237
0.0230711
0.0227721
0.022799
0.0229645
0.0233728
0.02485
0.0279646
0.0275511
0.0260004
0.0245785
0.0244744
0.0242521
0.0239846
0.0240546
0.024303
0.0256051
0.0302229
0.0301606
0.0272993
0.0258995
0.0252278
0.0250859
0.0260402
0.0286727
0.0347205
0.037749
0.0335596
0.0319118
0.0304558
0.0294729
0.0291402
0.0302112
0.0329698
0.0348713
0.0353374
0.0343536
0.0346137
0.0342694
0.0336177
0.0333838
0.0336285
0.0342536
0.0344919
0.0344231
0.0323058
0.0278672
0.0347576
0.0348293
0.0344768
0.0343347
0.0342901
0.0342235
0.0338536
0.0316969
0.0274241
0.025484
0.034034
0.034696
0.0345276
0.0342066
0.0340049
0.0334273
0.0316612
0.0282387
0.0257712
0.0245819
0.0322831
0.033619
0.0338241
0.0335407
0.032837
0.0314887
0.0291879
0.0263965
0.0249588
0.0244513
0.0312132
0.0321165
0.0324807
0.0323717
0.031656
0.0302214
0.0278819
0.0252445
0.0239968
0.0239486
0.0308698
0.030806
0.0311531
0.0311073
0.0307147
0.0296035
0.0277861
0.0254046
0.0238122
0.0236968
0.030778
0.0302823
0.0298889
0.0296907
0.0294281
0.0288995
0.0279127
0.0259191
0.0241938
0.024506
0.0293946
0.0304609
0.0291278
0.0284955
0.0284773
0.0283111
0.0279065
0.0269026
0.0251762
0.0255582
0.0403564
0.0399827
0.0373791
0.0349198
0.0337584
0.03466
0.0345616
0.0331193
0.0315779
0.028464
0.0383116
0.0360913
0.0341564
0.0324655
0.0318337
0.0321602
0.0333715
0.0337841
0.0334159
0.0322629
0.035872
0.0345105
0.0329929
0.0316152
0.0312268
0.031525
0.0324564
0.0334139
0.0331579
0.0321298
0.0339517
0.0333017
0.0318229
0.0308402
0.0307448
0.0311659
0.0320488
0.0323971
0.0322256
0.0313352
0.0332962
0.0327565
0.0312605
0.030523
0.0305151
0.0310023
0.0312161
0.0311067
0.0307052
0.0303883
0.0330855
0.0319867
0.0305035
0.0301583
0.0302483
0.0303862
0.0301921
0.0302091
0.0299971
0.0298386
0.0329067
0.0314215
0.0301258
0.0298159
0.0298211
0.0296843
0.0294296
0.0293677
0.0292808
0.0292917
0.032187
0.0311963
0.0299032
0.0294389
0.029385
0.0291214
0.0287759
0.0287287
0.0285195
0.0281856
0.0310124
0.0311986
0.029791
0.0289966
0.0287352
0.0285159
0.0281432
0.0280647
0.0278733
0.0281781
0.029315
0.0303905
0.0296636
0.0286041
0.0282954
0.0281245
0.0279589
0.0280235
0.0280637
0.0285292
0.0430579
0.0419858
0.0402561
0.0374554
0.0341645
0.0318899
0.0309343
0.0309447
0.0310519
0.0311502
0.0388965
0.0369638
0.035097
0.0327339
0.0305462
0.0289279
0.0283779
0.0284231
0.0287789
0.029013
0.0358267
0.0348691
0.0331642
0.0309354
0.0289979
0.0274838
0.0267583
0.0269013
0.027447
0.0279798
0.0346352
0.0338505
0.0316144
0.0291182
0.0271341
0.0259864
0.0258729
0.0262411
0.0269994
0.0277684
0.0341651
0.0330253
0.030097
0.0278185
0.026205
0.0254371
0.0256293
0.0261646
0.0269697
0.0279206
0.033885
0.0319155
0.0291765
0.027077
0.0257121
0.0253038
0.0256362
0.0263008
0.027121
0.0280966
0.0332022
0.0313211
0.0288099
0.0267373
0.0255476
0.0252993
0.0257548
0.0264086
0.0271755
0.0279791
0.0325274
0.0310648
0.0287106
0.0266284
0.0255569
0.0254483
0.0259292
0.0266379
0.0272759
0.0278297
0.0317551
0.030878
0.0287142
0.026843
0.0259744
0.0258579
0.0263703
0.0271452
0.0278362
0.0287621
0.03093
0.0301656
0.0284329
0.0271324
0.0266236
0.0267439
0.0272987
0.0281167
0.0289152
0.0292327
0.0359386
0.033703
0.0309626
0.0290596
0.0277126
0.0264805
0.0256827
0.0257496
0.0262625
0.0269022
0.0362084
0.0338429
0.0303917
0.0278279
0.0260008
0.0248783
0.0243782
0.0244518
0.0248927
0.0251741
0.0353185
0.0325481
0.0288207
0.0260916
0.0243229
0.0233947
0.0231564
0.0232903
0.0237496
0.0241167
0.034948
0.031914
0.0278474
0.0247937
0.0231329
0.0223916
0.022303
0.022503
0.0230381
0.0236614
0.0342892
0.0305823
0.0266257
0.0239227
0.0225611
0.0219799
0.021956
0.0222027
0.0227468
0.023579
0.0336339
0.0298256
0.026063
0.0235578
0.0223651
0.0218883
0.0218963
0.0221969
0.0227528
0.0236671
0.0327537
0.0291191
0.0258024
0.0234672
0.0224691
0.0222058
0.0221952
0.0223843
0.0228995
0.023924
0.0319879
0.0286912
0.0257347
0.0238083
0.0232085
0.0231131
0.0229888
0.0229101
0.0232983
0.0243679
0.0314361
0.0282004
0.0257901
0.0244399
0.0241578
0.024509
0.0244138
0.0242442
0.0245014
0.025374
0.0309745
0.0277349
0.0257867
0.0249654
0.025082
0.0259839
0.0262006
0.0260712
0.025846
0.0259786
0.0350224
0.0318888
0.0291842
0.0270992
0.0257538
0.0244896
0.0235573
0.0239169
0.025097
0.0267913
0.0357842
0.0323542
0.0291109
0.0264581
0.0247674
0.0236009
0.0228339
0.0229064
0.0234587
0.0239612
0.035531
0.0316627
0.0280491
0.0253315
0.0237713
0.0227771
0.0221896
0.0221719
0.0224212
0.0228095
0.0350411
0.0312719
0.027573
0.0247636
0.0232485
0.0223786
0.0218632
0.0216739
0.0218097
0.0221832
0.0344574
0.0303935
0.0268804
0.0243184
0.0230027
0.022226
0.0217635
0.02152
0.0215932
0.0220093
0.0337199
0.029848
0.0265397
0.0241614
0.0229626
0.0223159
0.0218813
0.0216124
0.0216778
0.0222178
0.0329711
0.0289752
0.0261579
0.0241466
0.0233776
0.0229331
0.0223974
0.022004
0.0219932
0.0225396
0.0320798
0.0283465
0.0259664
0.0244871
0.0241798
0.0240069
0.0234395
0.0228544
0.0226748
0.0229018
0.0313925
0.0275757
0.0256792
0.0248149
0.0250903
0.0252501
0.0249326
0.0244181
0.0243176
0.024771
0.0308695
0.0268964
0.0253504
0.0249676
0.0256775
0.0260274
0.0260069
0.0257156
0.0255107
0.0250131
0.0376859
0.0355664
0.0333612
0.0316319
0.0304939
0.0295017
0.0290038
0.02864
0.0285221
0.0268738
0.0389621
0.0366256
0.0338627
0.0316244
0.0302924
0.0293057
0.0286286
0.0282517
0.027382
0.0273903
0.0392413
0.0371283
0.0345237
0.0320859
0.0303863
0.0292509
0.028335
0.0274664
0.0266775
0.0252338
0.0392512
0.0373887
0.0353335
0.032912
0.0311442
0.0294916
0.0281832
0.0269799
0.0256592
0.0238282
0.0386536
0.0374626
0.0358098
0.0335772
0.0317144
0.0298571
0.0280993
0.0267417
0.0251952
0.022908
0.037931
0.0372038
0.0361033
0.03443
0.0325114
0.0304786
0.0283701
0.0267013
0.0250542
0.0227295
0.0369424
0.0362628
0.0361569
0.0348477
0.0333069
0.0313131
0.0290835
0.0272531
0.0257329
0.0235459
0.0362312
0.034926
0.0355202
0.0350316
0.0337781
0.0322498
0.0298547
0.0278436
0.0265593
0.0251384
0.0359656
0.0329706
0.0340805
0.0349519
0.0339645
0.0330232
0.0312503
0.0285988
0.0270152
0.0258778
0.0358567
0.0314353
0.0319048
0.033917
0.0339342
0.0333261
0.0325955
0.0311374
0.0290836
0.0277363
0.0358723
0.0340817
0.032849
0.0318639
0.0308857
0.0298387
0.0286402
0.0274303
0.0270909
0.0273846
0.0355044
0.0345065
0.0332631
0.0321347
0.0309024
0.0296291
0.0282032
0.0269543
0.0264618
0.0267499
0.0354211
0.0345478
0.0333391
0.0322462
0.0309395
0.0295808
0.0280457
0.0267301
0.0261539
0.0259374
0.0354363
0.034327
0.03323
0.0322967
0.0310656
0.0296024
0.0279535
0.0264671
0.0256107
0.0250552
0.035181
0.0339866
0.0328889
0.0322701
0.0312566
0.029806
0.027924
0.026342
0.0253592
0.0244592
0.0346417
0.0335404
0.0325124
0.0321602
0.031506
0.0301507
0.0280505
0.0262929
0.0252482
0.024108
0.034202
0.0329051
0.0319744
0.0319598
0.0316599
0.030584
0.0283375
0.0263426
0.0253322
0.0242837
0.0338337
0.0322324
0.0313659
0.0315838
0.0316829
0.0308059
0.028795
0.0266326
0.0257534
0.0251087
0.0336114
0.0315531
0.030547
0.0310602
0.031509
0.0308604
0.0290138
0.0268714
0.0259003
0.0248353
0.033535
0.0310558
0.0297909
0.0303888
0.030938
0.0306812
0.0290745
0.0270914
0.0257362
0.0241867
0.0311632
0.0290246
0.0275927
0.0270858
0.0269704
0.0270363
0.0274183
0.0284705
0.0286797
0.0286884
0.0311083
0.0296593
0.0285694
0.0280519
0.0279122
0.0279393
0.0282314
0.028953
0.0292866
0.030423
0.0327375
0.030817
0.0297297
0.0290192
0.0287192
0.0286718
0.0291077
0.0301269
0.0312255
0.0322494
0.0343351
0.0323806
0.0308473
0.030062
0.0297453
0.0299107
0.0307248
0.0315154
0.0318114
0.0315626
0.0353659
0.0338491
0.0320443
0.0311733
0.0308096
0.0309413
0.0314533
0.0316247
0.0314703
0.028941
0.0358829
0.0352068
0.0333829
0.0322214
0.0316574
0.0314959
0.0315037
0.0314372
0.0304169
0.0276385
0.0360905
0.0360694
0.0348622
0.0333263
0.0323618
0.0317108
0.0314198
0.0309012
0.0293555
0.0273069
0.0360236
0.0362449
0.0358251
0.034323
0.0331447
0.032007
0.0311587
0.0303441
0.028662
0.0266725
0.0361482
0.0362288
0.0360709
0.0352451
0.0339838
0.0325128
0.031266
0.0298358
0.0278204
0.0266363
0.0363565
0.0364889
0.0360286
0.0354289
0.0346002
0.033504
0.0318953
0.0300674
0.0279744
0.0274018
0.0244726
0.0244384
0.0229777
0.0222513
0.0217365
0.0221783
0.0233223
0.0248597
0.0260051
0.0267468
0.0256077
0.0240908
0.0228697
0.0224675
0.0223768
0.023061
0.0241717
0.0254631
0.0268855
0.0287401
0.02647
0.0243942
0.0234978
0.0232423
0.0232783
0.0239337
0.0249079
0.02665
0.0283361
0.0288519
0.0273766
0.0254651
0.0246089
0.0243358
0.024461
0.0249195
0.0264043
0.0279914
0.0286253
0.0277667
0.0278576
0.0265513
0.0259359
0.025783
0.025875
0.026782
0.0280818
0.0286211
0.0284853
0.0261023
0.0281946
0.0274053
0.0270912
0.0270387
0.0275099
0.028061
0.0285018
0.0287994
0.028113
0.0248452
0.0284382
0.0281588
0.0280051
0.0281926
0.0285455
0.0287732
0.0290667
0.0287988
0.0273186
0.0244838
0.0285969
0.0288272
0.0289096
0.0291511
0.0293554
0.0294083
0.0293081
0.0288519
0.027213
0.0244044
0.0285879
0.0295251
0.029771
0.0299981
0.0300723
0.0298238
0.0296459
0.0290621
0.0274045
0.0244884
0.0290328
0.0301143
0.0303097
0.0307079
0.0308298
0.0306356
0.0304064
0.029721
0.0280142
0.0247866
0.0167738
0.0171181
0.0185815
0.0211961
0.0225932
0.0233191
0.0241684
0.0225856
0.0178329
0.0161893
0.0168133
0.0173882
0.0195201
0.021522
0.0223757
0.0232812
0.0239053
0.0225708
0.0194575
0.0171056
0.0187928
0.0197329
0.0213742
0.0216492
0.0221333
0.0228412
0.0232119
0.0221553
0.0190851
0.0168758
0.0195337
0.0213786
0.0213707
0.0213414
0.0215654
0.0219997
0.0218345
0.0203667
0.0189629
0.0169945
0.018424
0.0210131
0.0204988
0.0203128
0.0202168
0.0200466
0.0195593
0.0188633
0.0187542
0.0174618
0.0182758
0.0198758
0.0191835
0.0189519
0.0188752
0.0185895
0.018507
0.018634
0.0187674
0.0172547
0.01804
0.0201379
0.0196718
0.0194402
0.0191212
0.0189248
0.0187584
0.0187643
0.0181986
0.0166453
0.0174842
0.0197017
0.0197952
0.0196821
0.0194052
0.0192228
0.0189132
0.0184873
0.0173838
0.016516
0.0170071
0.0195503
0.0194233
0.0191522
0.0193424
0.0195083
0.0193747
0.0184378
0.0173702
0.0166471
0.0170029
0.0187801
0.0187923
0.0186927
0.0189354
0.0195372
0.0193061
0.0182779
0.0174639
0.0169225
0.0149376
0.0154333
0.015579
0.0156244
0.0152382
0.0142477
0.0132287
0.0128378
0.0127197
0.0126969
0.0150619
0.0154063
0.0154673
0.0152407
0.0145346
0.0134543
0.0129758
0.012844
0.012878
0.0126325
0.015129
0.0153366
0.0153371
0.0148812
0.0140391
0.0131672
0.0128796
0.0128074
0.0126654
0.0126038
0.015108
0.0152015
0.0150631
0.0145641
0.0138085
0.0131552
0.0128805
0.012776
0.0126711
0.0126958
0.0150524
0.0150925
0.0148923
0.0144085
0.0138108
0.0132228
0.0129682
0.0127904
0.0128128
0.0128636
0.0149424
0.0149329
0.0146342
0.0142683
0.01386
0.0133933
0.0131651
0.0130893
0.0130653
0.0129397
0.0147845
0.0147192
0.0144514
0.0141043
0.0138679
0.013646
0.0134368
0.0133257
0.0131259
0.0127487
0.0146316
0.014527
0.014055
0.0130504
0.0131785
0.0133482
0.0133172
0.0132332
0.0126969
0.0125623
0.0144964
0.0137348
0.0127727
0.0126139
0.0126038
0.0127957
0.0128496
0.0126915
0.0125459
0.0124888
0.0141683
0.0134113
0.0126423
0.0126727
0.0126219
0.0127818
0.0127135
0.0123417
0.0121704
0.0119864
0.015756
0.0160683
0.0161865
0.0162636
0.0162756
0.0162675
0.0160292
0.0153602
0.0142092
0.0135703
0.01566
0.0157961
0.0158243
0.0158302
0.0157187
0.0153571
0.0145337
0.0137572
0.013197
0.0129739
0.0153701
0.0153695
0.0152789
0.0150292
0.0144848
0.0138031
0.0132383
0.0128231
0.0126382
0.0125952
0.0147864
0.014565
0.0141534
0.013643
0.0131933
0.0127806
0.0124651
0.012323
0.0122776
0.0124235
0.0135907
0.0133404
0.0128656
0.0126286
0.0122748
0.0121072
0.0119803
0.0119303
0.0119711
0.0121084
0.0126509
0.0123948
0.0120667
0.0118923
0.0116959
0.0116269
0.0115543
0.0115782
0.0116779
0.0117577
0.011904
0.011608
0.011324
0.0111416
0.0110554
0.0110734
0.0111943
0.0113348
0.0114306
0.0114177
0.0113368
0.0111429
0.0109526
0.0108781
0.010857
0.0108466
0.0109992
0.0111636
0.0111769
0.0111749
0.0111855
0.0110163
0.0109213
0.0109049
0.0109111
0.0108602
0.0108976
0.011036
0.0110666
0.0110387
0.0113174
0.0110416
0.010924
0.0109457
0.0109572
0.0108747
0.0108512
0.0109942
0.0109902
0.0106053
0.012411
0.0121959
0.0121565
0.012097
0.012093
0.0122303
0.0124409
0.012624
0.0128083
0.0130867
0.0123023
0.0120484
0.0119557
0.0119111
0.0119688
0.0121618
0.0123073
0.0125025
0.0128087
0.0133562
0.0122887
0.0119755
0.0118354
0.0117939
0.0118789
0.0120345
0.0122097
0.0124493
0.0128106
0.0134662
0.012326
0.0119854
0.0118186
0.0117493
0.0117979
0.0119197
0.0121249
0.0123879
0.0126878
0.0131061
0.0124616
0.0121066
0.0118544
0.0117399
0.0117129
0.0117956
0.0119746
0.0121981
0.0123703
0.0124029
0.0124771
0.0121683
0.0119464
0.0117475
0.0116523
0.0116671
0.0117486
0.0118546
0.0118434
0.0116165
0.0124391
0.0121684
0.0119399
0.0117373
0.0115912
0.0115391
0.0114837
0.0114203
0.0112811
0.0110412
0.0122058
0.0120875
0.0118948
0.011686
0.0115483
0.0113992
0.0112639
0.0110491
0.0108865
0.0107636
0.0119475
0.0118926
0.0117843
0.011621
0.0114668
0.0113288
0.011128
0.010863
0.0107168
0.0106566
0.0116324
0.0115955
0.0115401
0.0114654
0.0113551
0.0112395
0.0110347
0.010778
0.0106459
0.0106135
0.0193114
0.0196156
0.0199645
0.020241
0.0205482
0.0209242
0.0215009
0.0225754
0.0248244
0.024711
0.0195477
0.0197665
0.0201396
0.0205554
0.0209063
0.0213478
0.0218585
0.023032
0.0251364
0.025324
0.0201887
0.0201836
0.0203373
0.020735
0.0212735
0.021789
0.0224691
0.0238752
0.0257767
0.0256818
0.0210018
0.0208399
0.0207868
0.0209916
0.0215341
0.0222797
0.023057
0.0246643
0.026205
0.0258808
0.0217769
0.0216718
0.0214504
0.0216075
0.0221356
0.0230769
0.0243993
0.025871
0.0262216
0.0257634
0.0229724
0.0228632
0.0228517
0.0230317
0.0237644
0.0248486
0.0260574
0.0263683
0.0259985
0.0254092
0.0244787
0.0245064
0.0247574
0.0252759
0.0259125
0.0263268
0.0262338
0.0259402
0.0254311
0.024525
0.0254324
0.0255589
0.0258985
0.0259985
0.0258903
0.0258468
0.0255803
0.0250417
0.0243448
0.0235412
0.0242597
0.0244619
0.0247698
0.0249107
0.0248767
0.0245943
0.0242428
0.0237993
0.0232658
0.0226901
0.0220971
0.0226907
0.0231511
0.0234138
0.0235161
0.0234875
0.0232316
0.0228405
0.022347
0.0217523
0.0188016
0.0191667
0.0194335
0.0196634
0.0198305
0.01998
0.0202008
0.020508
0.0210891
0.0222857
0.0188465
0.0190237
0.0194063
0.0196824
0.0199568
0.0201303
0.0203608
0.0206665
0.0212253
0.0225291
0.01915
0.0191972
0.0194022
0.019758
0.0201027
0.0204312
0.0207685
0.0212115
0.0217883
0.0230714
0.0196756
0.019642
0.0196688
0.0198411
0.0201823
0.0206055
0.0210587
0.0217062
0.0223982
0.023664
0.0201386
0.0201506
0.0201341
0.0201709
0.0203384
0.0207629
0.02141
0.0221972
0.0231194
0.0242254
0.0207898
0.0208513
0.020869
0.0208784
0.0209428
0.0213105
0.0220262
0.0229398
0.0239682
0.0243946
0.0218153
0.0218425
0.0218684
0.0219648
0.0221938
0.0226099
0.0232678
0.0240213
0.024349
0.0241758
0.022634
0.0226578
0.022753
0.0229697
0.0232997
0.0237222
0.0240714
0.0241196
0.0239672
0.0235154
0.0227856
0.0228709
0.0231096
0.0233602
0.023544
0.0236494
0.0236712
0.0235425
0.0231471
0.0226836
0.0216843
0.0220585
0.0224928
0.0227508
0.0228825
0.02287
0.0226826
0.0224178
0.0220527
0.0217166
0.0188293
0.0191466
0.0194824
0.0197025
0.019834
0.0198898
0.0199456
0.0200058
0.0201276
0.0204548
0.0186105
0.0187131
0.0190336
0.0194009
0.0196149
0.0198021
0.0199065
0.0200141
0.020139
0.0205108
0.0186977
0.0187441
0.0189271
0.0192816
0.019626
0.0198525
0.0200473
0.0203066
0.0204658
0.0209164
0.0190127
0.0190297
0.0191029
0.019317
0.0196347
0.0199409
0.0202187
0.0205622
0.0208126
0.0213755
0.0193139
0.0193994
0.0194752
0.0195464
0.0197596
0.0200084
0.0202996
0.0207067
0.0211173
0.021755
0.0196573
0.0198022
0.0199151
0.0200101
0.0201208
0.0202754
0.0204946
0.0209279
0.0214786
0.0219977
0.0202354
0.0203992
0.0204939
0.0205967
0.0207058
0.0208513
0.0210948
0.0214832
0.0219093
0.0222948
0.0208505
0.0209249
0.0209954
0.021072
0.0211828
0.0213589
0.021649
0.0219021
0.0221999
0.0224071
0.0211097
0.021103
0.0211557
0.0212635
0.0213975
0.0215208
0.0217535
0.0219659
0.0220515
0.0221089
0.0208961
0.0208613
0.020953
0.0210925
0.0212247
0.0212921
0.0213533
0.0214155
0.0213435
0.0213812
0.0191632
0.0194312
0.0198477
0.0200602
0.0201593
0.0201609
0.0201287
0.0200555
0.0199497
0.0198596
0.0186506
0.0187382
0.0190709
0.0194193
0.0196252
0.0197204
0.0198004
0.0198075
0.0198057
0.0198458
0.0185157
0.0185561
0.0187406
0.0190995
0.0194075
0.0195818
0.0197442
0.0198516
0.0199003
0.020084
0.0185988
0.0186653
0.018816
0.0190922
0.019388
0.0196117
0.0198285
0.0200474
0.0201523
0.0204002
0.0188013
0.0189623
0.0191102
0.0192703
0.0194945
0.0197216
0.0199086
0.0201278
0.020285
0.0205843
0.0190123
0.0192449
0.0194472
0.0196229
0.0197741
0.019969
0.0201045
0.0202238
0.0203851
0.0206797
0.0193468
0.0196004
0.0197976
0.019951
0.0200731
0.0202118
0.0203263
0.0204294
0.0205944
0.0208402
0.0197745
0.0199388
0.0200579
0.0201433
0.020228
0.0202979
0.0204032
0.0205302
0.0207065
0.0209405
0.0200383
0.0201096
0.0201458
0.0201889
0.0202451
0.0203051
0.0203864
0.0205301
0.0206434
0.0208274
0.0202778
0.0201605
0.0201505
0.0201741
0.0202027
0.0202137
0.0202181
0.0202908
0.0203178
0.0204796
0.0199399
0.0201633
0.0206739
0.0209129
0.020953
0.0208677
0.0206463
0.0203274
0.0200368
0.0196739
0.0189294
0.0189763
0.0193143
0.0196628
0.0198438
0.0198789
0.0198569
0.019771
0.0195787
0.0195297
0.0185171
0.0185354
0.0187521
0.0191273
0.0193745
0.019485
0.0195362
0.0195667
0.0195483
0.0195871
0.0183323
0.0184331
0.0186806
0.0189844
0.0192649
0.0194478
0.0195496
0.0196417
0.0196894
0.0198102
0.0183833
0.0185915
0.0188376
0.019096
0.0193469
0.0195621
0.019686
0.0197909
0.0198655
0.0199594
0.018526
0.0188169
0.0191034
0.0193703
0.0195738
0.0197767
0.019879
0.0199273
0.0199836
0.0200376
0.0187279
0.0190552
0.0193304
0.0195671
0.0197334
0.0198494
0.0199277
0.0199815
0.0200194
0.0200739
0.019028
0.0192775
0.019482
0.0196385
0.0197446
0.0198232
0.0198701
0.0199299
0.0199764
0.0200793
0.0192473
0.0194279
0.0195678
0.0196694
0.0197268
0.0197411
0.0197401
0.0197926
0.0198491
0.0200045
0.0197256
0.0197022
0.0197271
0.0197944
0.0198075
0.0197862
0.0196908
0.0196672
0.0196673
0.0197891
0.0214588
0.0214132
0.021852
0.0220894
0.0220328
0.0217949
0.0213906
0.0208049
0.02019
0.0195563
0.0197482
0.0195798
0.0198485
0.0202116
0.020312
0.0202551
0.0200614
0.0198236
0.0194984
0.0192697
0.0187832
0.0187187
0.0189004
0.0192542
0.0194429
0.0194619
0.0194216
0.0193343
0.0191977
0.0191661
0.0183056
0.0183478
0.0186013
0.0189423
0.0191817
0.0192838
0.0192979
0.0192976
0.0192583
0.0192801
0.0180964
0.0183182
0.0186301
0.018947
0.0192261
0.0193782
0.0194125
0.0194232
0.019409
0.019424
0.018144
0.018491
0.0188404
0.0191537
0.0193905
0.0195809
0.01963
0.0196393
0.0196304
0.019585
0.0183073
0.0186614
0.0189873
0.0192781
0.0194767
0.0195827