/*--------------------------------*- C++ -*----------------------------------*\
  =========                 |
  \\      /  F ield         | OpenFOAM: The Open Source CFD Toolbox
   \\    /   O peration     | Website:  https://openfoam.org
    \\  /    A nd           | Version:  9
     \\/     M anipulation  |
\*---------------------------------------------------------------------------*/
FoamFile
{
    format      ascii;
    class       volScalarField;
    location    "80";
    object      f12.gas;
}
// * * * * * * * * * * * * * * * * * * * * * * * * * * * * * * * * * * * * * //

dimensions      [0 0 0 0 0 0 0];

internalField   nonuniform List<scalar> 
137980
(
0.0177423
0.0176375
0.0177725
0.0183123
0.0190262
0.0199535
0.0212686
0.023534
0.0249605
0.0279439
0.0175534
0.0175177
0.0178437
0.0185466
0.0194616
0.020591
0.0221512
0.0246187
0.0268122
0.0286396
0.017385
0.0173713
0.0177937
0.018613
0.0196553
0.0209327
0.0226196
0.0250725
0.027816
0.0289607
0.0171179
0.017132
0.0175976
0.0184611
0.0196217
0.0210376
0.0227805
0.0250132
0.0276713
0.0287691
0.0167996
0.0168322
0.0172916
0.0181249
0.0193108
0.0208425
0.0226216
0.0246954
0.0268945
0.0279498
0.0165683
0.0165725
0.0169381
0.0176522
0.0187185
0.0202134
0.0220696
0.024033
0.025889
0.0267768
0.0165821
0.0164952
0.0166644
0.0171494
0.0179834
0.0191826
0.0207921
0.0226735
0.0244749
0.0256768
0.0170179
0.0166544
0.0166118
0.016805
0.0173235
0.0181842
0.0193541
0.0207447
0.0220788
0.0232787
0.017959
0.0171438
0.0167932
0.0167702
0.0169051
0.0174554
0.0183344
0.0194743
0.0206116
0.0213484
0.0187379
0.0178723
0.0173134
0.0169629
0.0168683
0.0169635
0.0175063
0.0184869
0.0197492
0.0207046
0.017732
0.0177048
0.0179756
0.0187185
0.019847
0.0215328
0.0244265
0.0259298
0.0252092
0.0287581
0.0175922
0.0176388
0.0181502
0.0191448
0.0205534
0.0226063
0.0261378
0.0276536
0.0274543
0.029847
0.0174415
0.0175478
0.018198
0.0193203
0.0208993
0.0232469
0.0271916
0.029471
0.0298421
0.0311309
0.017198
0.0173548
0.0180593
0.0192747
0.0210215
0.0235891
0.0278897
0.0312422
0.0320044
0.0322348
0.0169465
0.0170954
0.0177705
0.0189532
0.0207591
0.0234357
0.027538
0.0319381
0.0336333
0.0337285
0.0168594
0.0169139
0.0173908
0.0184207
0.0201027
0.0227065
0.0264468
0.0314136
0.0337186
0.0345182
0.0171631
0.0170053
0.0170897
0.017783
0.0191449
0.0213144
0.0245109
0.0292485
0.0328635
0.034222
0.0183154
0.0174756
0.0172008
0.0173158
0.0181742
0.0197673
0.0221388
0.0253475
0.0295583
0.0325897
0.0199468
0.0185309
0.0176729
0.0172666
0.0174979
0.0185135
0.020197
0.0224805
0.0249116
0.0273408
0.0205024
0.0193661
0.0184752
0.0175861
0.0172685
0.0175863
0.0185669
0.0201945
0.0224835
0.0229251
0.0177711
0.0178739
0.0184154
0.0194967
0.021061
0.0236458
0.0270568
0.0274528
0.025615
0.0303375
0.0176849
0.0179457
0.0188168
0.0202182
0.0223477
0.0260545
0.0290314
0.0293552
0.0276976
0.0311656
0.017591
0.0179776
0.0190197
0.0207051
0.0233055
0.0276484
0.030608
0.0311561
0.0298718
0.0321038
0.0174209
0.0179
0.0190535
0.020901
0.0238
0.0286929
0.032071
0.0329174
0.0321586
0.0331023
0.0172989
0.0177298
0.0188498
0.0207697
0.0239185
0.0291418
0.0332526
0.0343611
0.0341525
0.0342512
0.0174022
0.0176082
0.0184514
0.0202292
0.0233422
0.0285551
0.0339601
0.0357535
0.035858
0.0355075
0.018007
0.017771
0.018078
0.0194206
0.0221564
0.0268041
0.0335149
0.0367115
0.0376824
0.0367949
0.0194869
0.0182893
0.0180463
0.0186946
0.0207015
0.0244486
0.0311752
0.0363127
0.0383593
0.0385906
0.0208854
0.0194783
0.0184363
0.0183456
0.0194623
0.0222539
0.0270378
0.0341671
0.0374201
0.0387153
0.0212793
0.0202656
0.0192672
0.0183238
0.0185926
0.0204071
0.0238865
0.0288665
0.0326315
0.0322418
0.0179799
0.0184137
0.0194373
0.021006
0.023556
0.0283605
0.0295334
0.0275064
0.0273627
0.0355413
0.0180821
0.0188453
0.0203437
0.0226902
0.0270901
0.030751
0.0313187
0.029643
0.0292758
0.0368492
0.0181644
0.0191733
0.0210258
0.0239261
0.0288825
0.0322181
0.03293
0.0315216
0.0310396
0.0373306
0.0181974
0.0193192
0.0213542
0.0245526
0.0298285
0.0332934
0.034178
0.0333935
0.0324084
0.0378998
0.0182414
0.0193259
0.0213733
0.0247029
0.0301327
0.0341325
0.0352463
0.0350195
0.033754
0.0378642
0.0183899
0.0192033
0.0209823
0.0242004
0.0296132
0.0346081
0.0363244
0.0365179
0.0352381
0.0376415
0.0188452
0.0191307
0.0204157
0.0232355
0.0282948
0.0344855
0.0371424
0.037889
0.0369979
0.0377124
0.0198484
0.019366
0.0199905
0.0221361
0.0264134
0.0335765
0.0373014
0.0387604
0.0383435
0.0384353
0.0207976
0.0199866
0.0198665
0.021182
0.0245428
0.0311808
0.0370255
0.0396389
0.0406411
0.0402928
0.0211305
0.0204211
0.0200774
0.0203654
0.022986
0.0288
0.0353148
0.0389095
0.0406924
0.0400065
0.0190513
0.0202447
0.0227984
0.0253553
0.0279521
0.0287334
0.0271921
0.0267311
0.0351703
0.0409255
0.019794
0.0218569
0.0259155
0.0292128
0.0302833
0.0303142
0.029453
0.0299716
0.0385094
0.0406897
0.0204345
0.023254
0.0281253
0.0312871
0.0321585
0.0321976
0.0317828
0.033651
0.0389037
0.0383448
0.020927
0.0239509
0.0292027
0.0327342
0.033753
0.0338986
0.0338595
0.0360275
0.0391759
0.0367894
0.0211738
0.0241373
0.0293343
0.0336291
0.0351024
0.0354701
0.0355194
0.0372976
0.0392268
0.0375549
0.0211817
0.0237781
0.028537
0.0338197
0.0361332
0.0368092
0.0368565
0.0378789
0.0392691
0.0385716
0.0210907
0.0230493
0.0270538
0.0331695
0.0365655
0.0379549
0.0381582
0.0383302
0.0392464
0.038806
0.0211661
0.0223743
0.0254364
0.0313154
0.0362786
0.0384605
0.0392267
0.0391564
0.0393788
0.0389821
0.0213435
0.0218361
0.0240703
0.0286663
0.0351177
0.0383306
0.0397957
0.0399157
0.0401454
0.039755
0.021277
0.0215605
0.0230349
0.0263296
0.0334826
0.0376222
0.039778
0.0410179
0.0417371
0.0417939
0.0231464
0.0234493
0.023606
0.0244598
0.0263343
0.0266822
0.0266824
0.0331471
0.0409999
0.0400421
0.0257728
0.0268423
0.0273621
0.0281035
0.0287343
0.0290321
0.0320192
0.037855
0.0389665
0.0307206
0.0281809
0.0294584
0.0300495
0.0307549
0.0315183
0.0333227
0.0363119
0.0371792
0.0330315
0.0246546
0.0298666
0.0314897
0.0322533
0.0331067
0.0343986
0.0357868
0.0362127
0.0350924
0.026063
0.0220489
0.0310114
0.0331441
0.0341438
0.0351986
0.0361329
0.0364324
0.0356787
0.0313761
0.0243256
0.0219996
0.0313648
0.0343008
0.0357915
0.0366724
0.0370215
0.0364358
0.0345563
0.0294761
0.0244877
0.0230555
0.0310216
0.03446
0.0368073
0.0375356
0.0375093
0.0366351
0.0345785
0.0295141
0.0255376
0.0258452
0.0297511
0.0339188
0.0368138
0.0379622
0.0381028
0.0371487
0.0352049
0.0304582
0.0276997
0.0301406
0.0275333
0.0325494
0.036251
0.0379036
0.0383541
0.0378834
0.0365017
0.0327116
0.0301081
0.0315239
0.0253092
0.029911
0.034877
0.0375731
0.0383731
0.0385702
0.0381751
0.0371117
0.0358153
0.0359206
0.0241742
0.0252462
0.0262274
0.0279488
0.0304009
0.03439
0.0381638
0.0383345
0.0331516
0.0310074
0.0268603
0.0277052
0.0291941
0.0316342
0.0354629
0.0370841
0.0371187
0.0330191
0.0272781
0.0253385
0.0293479
0.0301992
0.032364
0.0352593
0.0367213
0.0365378
0.0341685
0.0270437
0.0240517
0.0225716
0.0317979
0.032785
0.0352112
0.0363772
0.0364491
0.0350721
0.0295976
0.0243757
0.0224803
0.021483
0.0338335
0.0349889
0.0362772
0.0364551
0.0357214
0.0326406
0.0262566
0.0234438
0.0224169
0.0218457
0.0352186
0.0362199
0.0366117
0.0362747
0.0346819
0.0300999
0.0251031
0.0235041
0.0230459
0.0243023
0.0359995
0.0366462
0.0367032
0.036109
0.033678
0.0286943
0.0251132
0.0239667
0.0251473
0.0286197
0.0361947
0.0368784
0.0369092
0.0362134
0.0338801
0.0288576
0.0255312
0.0248819
0.0265126
0.0310627
0.0359576
0.0368033
0.0369734
0.0365251
0.0344619
0.02981
0.0266091
0.0258354
0.0272164
0.0313774
0.0355815
0.036631
0.0369023
0.0368639
0.0356745
0.0321985
0.0292416
0.0278658
0.0288848
0.0314654
0.0336828
0.03391
0.0329807
0.031952
0.0305371
0.0293387
0.0281099
0.0271542
0.02648
0.0261792
0.0322649
0.0321013
0.0306498
0.029827
0.0283994
0.0270874
0.0259152
0.024885
0.0240782
0.0234275
0.0315715
0.0309461
0.0298029
0.0287017
0.0270707
0.0258185
0.0245295
0.0236251
0.023118
0.0223679
0.0315477
0.0307267
0.0293879
0.0276394
0.0256538
0.0240277
0.0230764
0.0227377
0.0226025
0.0225306
0.0319108
0.0309955
0.0291501
0.0267032
0.0244855
0.0232278
0.022866
0.0231698
0.0244139
0.0249219
0.0326182
0.03146
0.0291884
0.0263328
0.0239428
0.0229624
0.0227943
0.0239988
0.0261046
0.0273652
0.0334014
0.0320836
0.0295045
0.0265458
0.0238829
0.022722
0.0225209
0.0236936
0.0263684
0.0284321
0.0340876
0.0328403
0.0302863
0.0272147
0.0243118
0.0228025
0.0221989
0.022813
0.0253933
0.028779
0.0343946
0.0336375
0.0314606
0.0286776
0.0255696
0.0235242
0.0225594
0.0228476
0.0239404
0.0282018
0.0344738
0.0343265
0.0326059
0.0306081
0.0284823
0.025992
0.0245337
0.0250797
0.0264141
0.0290462
0.0311173
0.0315803
0.0305502
0.030108
0.0293857
0.0287336
0.0278057
0.0271759
0.0264577
0.0260413
0.0293927
0.029371
0.0280182
0.0273993
0.0263541
0.0258838
0.0254587
0.0252459
0.0249321
0.0246065
0.0273231
0.026637
0.0250438
0.0243532
0.0238934
0.0237386
0.023827
0.0241186
0.0242346
0.0241542
0.0262961
0.0248105
0.0231302
0.0223766
0.022025
0.0219885
0.0227948
0.023687
0.0245329
0.0249167
0.0263121
0.0239219
0.0220582
0.0211428
0.0207548
0.0207486
0.0218978
0.0234333
0.0251052
0.0258913
0.0267927
0.0242524
0.022098
0.0206024
0.0199514
0.0198428
0.0205357
0.0225893
0.0251337
0.026324
0.027971
0.0252376
0.0226634
0.0210158
0.0200354
0.0197015
0.0199827
0.0213167
0.0236709
0.0262244
0.0295317
0.0265612
0.0240055
0.0222558
0.0212344
0.0205655
0.020626
0.0211356
0.0227727
0.025861
0.0306451
0.0281438
0.0259298
0.0245113
0.0239506
0.02306
0.022731
0.0230776
0.0240098
0.026419
0.0316465
0.0292743
0.02756
0.0273319
0.0275317
0.02601
0.0254708
0.0258411
0.0266064
0.0279478
0.0305992
0.0312911
0.0313757
0.0311656
0.030855
0.0303368
0.0298076
0.0290878
0.0284534
0.0279462
0.0280449
0.0284243
0.0284783
0.0283091
0.0280637
0.0277867
0.0273326
0.0268202
0.0261036
0.0254162
0.0262104
0.0260169
0.0256169
0.0254204
0.025295
0.0252632
0.0252474
0.0251604
0.0248622
0.0244219
0.0246444
0.0237683
0.0232627
0.0228218
0.0226378
0.0226384
0.0230359
0.0235329
0.023885
0.0240118
0.0241698
0.0226157
0.0218622
0.021284
0.0210052
0.0209704
0.0214528
0.0223377
0.0235614
0.0243157
0.0244443
0.0227303
0.0213401
0.0205195
0.0201113
0.0200343
0.0203719
0.0211702
0.0227525
0.0244153
0.0257967
0.0234165
0.0216407
0.0205204
0.019915
0.0198175
0.0200536
0.0207527
0.0221759
0.0243768
0.0272642
0.0247382
0.0224292
0.0210797
0.0204957
0.020472
0.0206699
0.021232
0.0222613
0.0243537
0.0278367
0.0258635
0.0236775
0.0222334
0.0222146
0.0223519
0.0226459
0.0232275
0.0239467
0.0254398
0.0283358
0.0265577
0.0245697
0.0243917
0.0250835
0.025113
0.0249142
0.0250838
0.0253774
0.0259752
0.0336888
0.0350641
0.035579
0.0358767
0.0359237
0.0355504
0.0348693
0.0339506
0.0330545
0.0321719
0.031183
0.0319069
0.0322112
0.0323361
0.0322993
0.0316527
0.030934
0.0297969
0.0288535
0.0277338
0.0299715
0.0303759
0.0305114
0.0305566
0.0303354
0.029908
0.0292056
0.0282993
0.0273327
0.0261391
0.0279058
0.0279758
0.0279421
0.0278522
0.027691
0.0274327
0.0270676
0.0266804
0.0260805
0.0250333
0.026185
0.0257756
0.0254846
0.0251673
0.0248285
0.0244786
0.0242262
0.0241292
0.0240784
0.0240019
0.0252144
0.0244911
0.0238167
0.0233304
0.0228976
0.0224636
0.0221222
0.0220192
0.0221488
0.0229412
0.0260252
0.0245206
0.0232208
0.0223168
0.0217207
0.0213436
0.0210954
0.0210846
0.0211836
0.0221061
0.0270304
0.0254462
0.0235082
0.022162
0.021398
0.0210377
0.0209398
0.0210041
0.0212019
0.022033
0.027314
0.0265311
0.0243971
0.0226281
0.0220235
0.0217376
0.0217833
0.0219614
0.0223812
0.0237948
0.0272877
0.0268328
0.0251576
0.0235941
0.0235414
0.02339
0.0231464
0.0232066
0.0234164
0.0246192
0.0288877
0.0288879
0.0260252
0.0246522
0.0239976
0.0238534
0.0247232
0.0271722
0.032975
0.0364455
0.0324646
0.030619
0.0290746
0.0280194
0.0276667
0.0286723
0.0314186
0.0334146
0.033956
0.0331508
0.033617
0.0331903
0.0324154
0.0321173
0.0321713
0.0328523
0.0331034
0.0330528
0.0310743
0.0267557
0.0337381
0.0337898
0.0333525
0.0331365
0.0330294
0.0329281
0.0325259
0.0305129
0.026334
0.0244582
0.0329608
0.0336119
0.0334161
0.03304
0.0328053
0.0322152
0.0304834
0.0271058
0.024705
0.023543
0.0311342
0.0325042
0.0327012
0.0324231
0.0317494
0.0304195
0.0281287
0.0253439
0.0239358
0.0234226
0.0301082
0.0310058
0.0313576
0.0312516
0.0305783
0.0291639
0.026806
0.0241861
0.0229718
0.0229155
0.0298805
0.0296928
0.0300348
0.0299874
0.0296209
0.028569
0.0267542
0.0243457
0.0227708
0.0226272
0.0298952
0.0292616
0.0288292
0.0285852
0.028322
0.0278271
0.0268771
0.0248941
0.0231613
0.0234205
0.0285087
0.0295093
0.0280507
0.0273752
0.0274127
0.0272734
0.0268959
0.0259235
0.0241851
0.0244635
0.0391474
0.0387856
0.0363581
0.0340679
0.0329603
0.0338205
0.0336213
0.0318328
0.030082
0.0269585
0.0370935
0.0350085
0.0332459
0.0316419
0.0309954
0.0312996
0.0325511
0.0328289
0.0323727
0.0310803
0.0346671
0.0335014
0.0321588
0.0308469
0.0304377
0.0307287
0.0315929
0.032538
0.032226
0.0310156
0.0328537
0.0323259
0.0310164
0.030053
0.0299827
0.030409
0.0312222
0.0316531
0.0314299
0.0302715
0.0322128
0.0317906
0.0304459
0.0297307
0.0297419
0.0302302
0.0304126
0.0303876
0.0298338
0.0293258
0.031996
0.0310597
0.0296394
0.0293223
0.0294633
0.0295997
0.029449
0.0294606
0.0290785
0.0287904
0.0318339
0.0305047
0.0292502
0.0289525
0.0290041
0.0288806
0.0286882
0.0286052
0.0283985
0.0283003
0.0311652
0.0302857
0.0290116
0.0285299
0.0284926
0.0282762
0.0280422
0.0280069
0.0277324
0.0272908
0.0300029
0.0302577
0.028886
0.0280451
0.0277788
0.0275924
0.0273327
0.0273261
0.0270552
0.0272194
0.0283291
0.0294045
0.028742
0.0277155
0.0273554
0.0272027
0.0271051
0.0272499
0.0272064
0.0275092
0.0416445
0.0404431
0.0390639
0.0364977
0.0333397
0.0311421
0.0301227
0.0301194
0.0302336
0.0303953
0.0373793
0.035728
0.0341781
0.0320113
0.0298885
0.0282697
0.0276978
0.0277525
0.0281189
0.0283275
0.0345334
0.033795
0.0323905
0.0302909
0.0283909
0.0268525
0.0261208
0.0262569
0.0267797
0.0272937
0.0334356
0.0328578
0.0309279
0.0284584
0.0264845
0.0253052
0.0252276
0.025577
0.0263286
0.0270582
0.0330325
0.0320673
0.0293427
0.0271253
0.0255214
0.0247765
0.0249826
0.0255073
0.0262977
0.0271926
0.0327447
0.0310544
0.0283894
0.0263495
0.0249987
0.0246483
0.0249767
0.02565
0.0264393
0.0273128
0.0321109
0.0304232
0.0280007
0.0259897
0.0248343
0.024641
0.025108
0.0257719
0.0264948
0.0271953
0.0314411
0.0301469
0.027882
0.0258693
0.0248421
0.0247609
0.0252785
0.0260148
0.0265812
0.0270512
0.0306993
0.0299189
0.0278699
0.026074
0.0252461
0.0251462
0.0256896
0.0264892
0.0271281
0.0279707
0.0299425
0.0292229
0.0275688
0.0263728
0.0258998
0.0260596
0.0266187
0.0274097
0.0280364
0.0282708
0.0347817
0.0328503
0.0301714
0.0282846
0.0269723
0.0257435
0.0249378
0.0250343
0.0256473
0.0262708
0.0349958
0.0329357
0.0295997
0.0270589
0.0252543
0.0241115
0.0236198
0.0237046
0.024187
0.0244659
0.0340567
0.0316022
0.0279905
0.0252751
0.0234723
0.0225293
0.0223306
0.0224867
0.0229972
0.023371
0.0336728
0.0309654
0.0270225
0.0239521
0.0222873
0.0215557
0.0214872
0.021697
0.0222695
0.0229044
0.0330158
0.0296035
0.0257709
0.0230779
0.0217382
0.021169
0.0211588
0.0214147
0.0219835
0.0228351
0.0323688
0.0288711
0.0252183
0.0227333
0.0215576
0.0210947
0.0211102
0.0214244
0.0219967
0.0229571
0.0314876
0.0281412
0.0249666
0.0226583
0.0217021
0.0214548
0.021435
0.0216241
0.0221529
0.0232509
0.0307522
0.0277446
0.0249058
0.023053
0.0224873
0.0224038
0.0222641
0.0221684
0.0225661
0.0236859
0.0302088
0.0272668
0.0249967
0.0237103
0.023459
0.0238244
0.0237356
0.0235629
0.0238289
0.0246909
0.0297725
0.0268521
0.0250224
0.0242554
0.0243979
0.0252631
0.0254637
0.0253316
0.0250395
0.0251092
0.0337335
0.0306605
0.0280821
0.0260728
0.0247784
0.0235668
0.0226863
0.0230652
0.0242929
0.0260239
0.0343682
0.0310773
0.02798
0.0254329
0.0237892
0.0226612
0.0219382
0.0220263
0.0226192
0.0230752
0.0339507
0.0303097
0.0269295
0.0243323
0.0228259
0.0218624
0.0212847
0.0212851
0.0215499
0.0219324
0.0334817
0.0299302
0.0264686
0.0237914
0.0223486
0.0214938
0.0209797
0.0207974
0.0209363
0.0213096
0.032775
0.0290351
0.0258119
0.023395
0.0221327
0.0213629
0.0208931
0.0206485
0.0207252
0.0211466
0.0320573
0.0285607
0.0254869
0.0232618
0.0221101
0.0214867
0.0210456
0.0207493
0.0208107
0.0213777
0.0312644
0.0276756
0.0251174
0.0232607
0.0225729
0.0221354
0.0215938
0.021163
0.021126
0.0217156
0.0304273
0.027132
0.024937
0.0236351
0.0233798
0.0232082
0.0226455
0.0220397
0.0218191
0.0220519
0.029752
0.0263782
0.0246741
0.0239593
0.0242586
0.0243907
0.0240908
0.0235864
0.0234606
0.0238473
0.0293426
0.0257819
0.0243651
0.0241154
0.0248146
0.025089
0.0250312
0.0246913
0.0244799
0.0239451
0.0367967
0.0345561
0.0324752
0.0306891
0.0295573
0.0285636
0.0281674
0.0277956
0.0275863
0.0257106
0.037541
0.0354698
0.0329549
0.0306684
0.0293264
0.0283483
0.0276449
0.0272791
0.0264099
0.0262767
0.0376869
0.0358466
0.0335437
0.0310584
0.0293771
0.028265
0.0273039
0.0264515
0.0256031
0.0241694
0.037462
0.0359861
0.0342798
0.0318775
0.0300783
0.0284152
0.0270881
0.0258759
0.0245403
0.0227554
0.036832
0.0359882
0.0346556
0.0325045
0.0306136
0.0287555
0.0269836
0.0255928
0.0240524
0.0218284
0.0361784
0.0354767
0.0348563
0.0332834
0.0313179
0.0293058
0.0271637
0.0255267
0.023898
0.0216451
0.03537
0.034543
0.0348489
0.0336585
0.0320618
0.0300678
0.027844
0.0259912
0.0245196
0.0223737
0.0349499
0.0330578
0.0340506
0.0338235
0.032468
0.0309232
0.0285564
0.0265646
0.0253138
0.023926
0.034835
0.0311543
0.0326928
0.0336895
0.0326328
0.0316317
0.0298817
0.0272651
0.0257682
0.0246626
0.034821
0.0298341
0.030438
0.0326798
0.0326023
0.0319152
0.0311856
0.0298093
0.0278589
0.0267027
0.0351264
0.0330698
0.031871
0.0308719
0.0299059
0.0288983
0.0276987
0.0264493
0.0260868
0.0263974
0.0347807
0.0334833
0.0321912
0.0310764
0.0299008
0.0286576
0.027231
0.0259604
0.0255013
0.0257551
0.0347309
0.0335053
0.0322315
0.0311529
0.0299166
0.0285992
0.027059
0.0257281
0.0251318
0.0248776
0.0347493
0.0332317
0.0320068
0.0311853
0.0300137
0.0286088
0.0269593
0.0254495
0.0245721
0.0240475
0.0344479
0.0328361
0.0316519
0.0310903
0.0301764
0.0287954
0.0269269
0.0253155
0.0243046
0.0234001
0.0338687
0.0323001
0.0312065
0.0309651
0.0304006
0.0291248
0.0270422
0.0252587
0.0241771
0.0229955
0.0334241
0.0316122
0.0306614
0.0307271
0.0305331
0.0295312
0.0273397
0.0252837
0.0242377
0.0231493
0.0330089
0.0309055
0.0300217
0.0303579
0.0305457
0.0297136
0.0277667
0.0255727
0.0246687
0.0240005
0.0327674
0.0302389
0.0292208
0.0298209
0.0303456
0.0297477
0.0279419
0.0257755
0.0247903
0.0237298
0.0326874
0.0297699
0.0284451
0.0291512
0.0297534
0.0295104
0.0279711
0.0259425
0.0245622
0.0231013
0.0304597
0.0282716
0.0268484
0.0263189
0.0261771
0.0261776
0.0264855
0.0275022
0.0277351
0.0277997
0.0304478
0.0288672
0.0278045
0.0272556
0.0270746
0.0270551
0.0272967
0.0279696
0.02828
0.029219
0.031998
0.0299072
0.0289118
0.0281656
0.0278393
0.0277729
0.0281405
0.0290832
0.0300341
0.0309598
0.0336005
0.0313777
0.0299179
0.0291467
0.0288326
0.0289444
0.0296675
0.0303584
0.0306077
0.0303059
0.0346893
0.0328063
0.031039
0.0301966
0.029843
0.0298993
0.030336
0.030475
0.0302917
0.0278532
0.0352399
0.0342317
0.0322615
0.0311802
0.0306082
0.0304187
0.030395
0.0303024
0.0292891
0.026755
0.0354604
0.0351647
0.033625
0.0321866
0.0312669
0.030627
0.0303313
0.0298175
0.028317
0.0264427
0.0354131
0.0354755
0.0346962
0.0330659
0.032044
0.0309218
0.0301337
0.0293144
0.0277059
0.0258218
0.0354685
0.0354862
0.035107
0.0340379
0.0328321
0.0314133
0.0302508
0.0289109
0.026964
0.0257897
0.0355632
0.0356875
0.0350911
0.0342788
0.0334232
0.0323788
0.0308655
0.0291429
0.0271002
0.0265797
0.0233547
0.0233473
0.0218344
0.0211007
0.0205285
0.0208802
0.0219446
0.0234503
0.0245737
0.0254955
0.0243848
0.022957
0.021677
0.02125
0.0211214
0.0217135
0.0226892
0.0240427
0.0254619
0.0273965
0.0252569
0.0231917
0.0222474
0.0219635
0.0219787
0.0225227
0.0234917
0.0251052
0.0270482
0.0276694
0.0261407
0.0241604
0.0233082
0.0230337
0.0231173
0.0235286
0.0248011
0.0266253
0.0274464
0.0265496
0.0265574
0.0250941
0.0245004
0.0243778
0.0244256
0.025168
0.0265949
0.0273278
0.0272986
0.0248657
0.0268176
0.0257983
0.0254443
0.0254101
0.0258639
0.0264488
0.0271635
0.0276013
0.0269449
0.0236873
0.0270138
0.0265355
0.0263381
0.0265133
0.0268891
0.0272594
0.0277516
0.0276362
0.0261877
0.0233046
0.0272269
0.0271856
0.027207
0.027407
0.0277154
0.0279559
0.0280348
0.0277159
0.0261477
0.0232975
0.027352
0.0279182
0.028035
0.0282575
0.0284059
0.0283625
0.0283359
0.0279429
0.0263815
0.0233935
0.0278043
0.0285254
0.0287026
0.0289881
0.0291374
0.0290826
0.028984
0.0285447
0.0270137
0.0236929
0.0153328
0.0159086
0.0173417
0.0196822
0.0213953
0.0216852
0.0223319
0.0212484
0.0163061
0.014861
0.0155963
0.0163245
0.0184463
0.0200204
0.0210919
0.0215291
0.0222866
0.0214262
0.0177527
0.0155434
0.0172751
0.0182397
0.0194803
0.0202871
0.0206873
0.0210532
0.0216471
0.0208894
0.017633
0.015245
0.0181515
0.0195841
0.0197833
0.0199309
0.0200227
0.0203897
0.0203967
0.0195273
0.0176995
0.0154299
0.0170785
0.0196555
0.019303
0.0190487
0.0190243
0.0189049
0.0184863
0.0178984
0.0175279
0.0161557
0.0170386
0.0187422
0.0181456
0.0179232
0.0177843
0.0175283
0.0173291
0.0173684
0.0170915
0.0159075
0.0168426
0.018587
0.0182426
0.0180553
0.0177651
0.0174018
0.0174208
0.0173771
0.0167207
0.0152075
0.0162848
0.0184635
0.0184636
0.0182792
0.0181508
0.0179346
0.0177179
0.0169961
0.0159789
0.0149913
0.0158291
0.01824
0.0181857
0.0179542
0.0181352
0.018264
0.0180045
0.0168992
0.0159092
0.0150822
0.0158314
0.017347
0.01747
0.0175297
0.0178164
0.0181894
0.0178162
0.0166849
0.0161581
0.0153436
0.0138926
0.0143693
0.0144903
0.0144969
0.0140791
0.013104
0.0121935
0.0118317
0.0117066
0.0116681
0.0140336
0.0143278
0.014356
0.0141023
0.0133826
0.0123809
0.0119588
0.0118357
0.0118387
0.0116297
0.0140795
0.0142477
0.0142202
0.0137357
0.0129096
0.012125
0.0118711
0.0117941
0.0116663
0.0116061
0.0140469
0.0141036
0.0139428
0.0134325
0.0126954
0.0120939
0.0118592
0.0117422
0.0116477
0.0116544
0.0139739
0.0139977
0.0137758
0.0132729
0.0126871
0.0121433
0.0119198
0.0117379
0.0117577
0.0117925
0.013862
0.0138307
0.0135277
0.0131455
0.0127342
0.0122933
0.0120483
0.0119998
0.0119645
0.011855
0.0137008
0.0136328
0.013347
0.0129808
0.0127443
0.0125231
0.0123212
0.0122134
0.0120077
0.0117295
0.0135634
0.0134347
0.0129455
0.0119793
0.0121039
0.0122457
0.0122129
0.0121272
0.0116437
0.0115334
0.013435
0.0126441
0.0117346
0.0115675
0.01155
0.011713
0.0117415
0.011633
0.0114944
0.0114407
0.0131402
0.0123797
0.0116072
0.011609
0.0115646
0.011693
0.0116334
0.0113158
0.0111231
0.0109599
0.0147161
0.0149911
0.0150923
0.0151391
0.015146
0.0151115
0.0148471
0.0141976
0.0131316
0.0125462
0.0145993
0.0147032
0.0147181
0.0147141
0.0145761
0.0141852
0.0134144
0.0126763
0.012125
0.011885
0.014282
0.0142526
0.0141529
0.0138785
0.013369
0.0127259
0.0121738
0.0117758
0.0115933
0.011541
0.0136465
0.0134807
0.0130423
0.0126167
0.0121347
0.0117391
0.011445
0.0113205
0.0112814
0.0113922
0.0125636
0.012329
0.0118667
0.0116359
0.0112663
0.0110985
0.0109897
0.0109532
0.010978
0.0111141
0.0117482
0.0114734
0.0111352
0.0109617
0.0107534
0.0106773
0.010599
0.010608
0.0106829
0.0107637
0.0110017
0.0106879
0.0104059
0.0102072
0.0101138
0.0101385
0.010256
0.0103623
0.0104453
0.0104685
0.0104117
0.0102295
0.0100174
0.00993022
0.00990984
0.00990251
0.0100517
0.0101901
0.0102018
0.010195
0.0102631
0.0100684
0.00995855
0.00993565
0.00993671
0.00989379
0.00997564
0.0100703
0.0100944
0.0100784
0.0103614
0.010097
0.00995542
0.00995506
0.00997503
0.00990836
0.00989451
0.0100315
0.0100221
0.00967308
0.0112919
0.0110994
0.0110907
0.0110458
0.0110431
0.0111741
0.0113625
0.0115297
0.0117113
0.0119855
0.0111842
0.0109361
0.0109055
0.0108765
0.0109388
0.0111231
0.0112642
0.0114377
0.0117169
0.0122293
0.0111887
0.0108584
0.0107474
0.010763
0.0108606
0.0110136
0.0111724
0.0113743
0.0117049
0.0123346
0.0112737
0.0108979
0.0107151
0.010662
0.0107448
0.0108731
0.0110528
0.0112893
0.0115707
0.0119812
0.0115138
0.0110993
0.0108071
0.0106749
0.0106584
0.0107341
0.010883
0.0110927
0.0112605
0.0113009
0.0115805
0.0112499
0.0109841
0.0107289
0.0106176
0.0106135
0.0106762
0.0107629
0.0107579
0.0105527
0.0115568
0.0112769
0.0110268
0.0107858
0.0105997
0.0105124
0.0104403
0.0103546
0.0102237
0.0100017
0.0113577
0.0112106
0.0109991
0.0107625
0.010576
0.0104179
0.0102533
0.0100183
0.0098534
0.00973495
0.011079
0.0110305
0.0109109
0.0107207
0.0105256
0.0103633
0.0101496
0.00986358
0.00969943
0.00963194
0.0107918
0.0107208
0.0106683
0.0105924
0.0104524
0.0102958
0.0100874
0.00979976
0.00964009
0.00959105
0.0183105
0.0186131
0.0189586
0.0193253
0.0196894
0.0200648
0.0207234
0.0218803
0.0241901
0.0237759
0.0185408
0.0187257
0.0190681
0.019482
0.0198702
0.0203449
0.0209341
0.0221711
0.0243323
0.0242883
0.0192862
0.0191859
0.0192927
0.0196364
0.0201601
0.0207064
0.0214259
0.0228236
0.024722
0.0246022
0.0201573
0.0199151
0.0198554
0.0199678
0.0203931
0.0210946
0.0218967
0.0234879
0.0250933
0.0247526
0.0209904
0.0208202
0.0205631
0.0206423
0.0209971
0.0218184
0.0230958
0.0246044
0.02513
0.0246522
0.022317
0.0221416
0.0219896
0.0220846
0.0226317
0.023568
0.0247991
0.0253095
0.0249832
0.0243664
0.0240503
0.0238913
0.0240275
0.0243659
0.0248892
0.0253502
0.0252836
0.0249941
0.0244644
0.02365
0.0249104
0.0249338
0.0251556
0.0251832
0.0250518
0.0249565
0.0246761
0.024195
0.0235393
0.0227752
0.0234878
0.0236683
0.0239741
0.0240978
0.0240681
0.0237979
0.0234461
0.0230247
0.0225006
0.0219083
0.0211943
0.0218117
0.0222907
0.0225678
0.0226971
0.0226806
0.0224279
0.0220531
0.0215599
0.0209443
0.0177372
0.0180771
0.018331
0.0185916
0.0188368
0.0190363
0.0192963
0.0196404
0.0202653
0.0215494
0.0177935
0.0179467
0.0182922
0.0185969
0.0188738
0.0190826
0.0193676
0.0197359
0.0203487
0.0216605
0.01817
0.0181799
0.0183313
0.0186504
0.0189917
0.019319
0.0196722
0.0201378
0.0207618
0.0220396
0.0187281
0.0186787
0.0186767
0.0188075
0.019126
0.0195207
0.0199473
0.0205612
0.021262
0.022513
0.019212
0.0192065
0.0191699
0.0191959
0.0193525
0.0197213
0.0202692
0.0209825
0.0219075
0.0230179
0.0199655
0.019996
0.0199647
0.019965
0.020005
0.0202927
0.0208831
0.021736
0.0227009
0.0232746
0.0212237
0.0211812
0.021146
0.021169
0.0212918
0.0215808
0.0221601
0.0228609
0.0232855
0.023138
0.0220792
0.0220592
0.0220986
0.0222369
0.0224677
0.0227754
0.023101
0.0231752
0.0230151
0.022609
0.0221394
0.0222099
0.0224164
0.0226173
0.0227542
0.0227978
0.0227923
0.0226708
0.0223185
0.021854
0.0208267
0.0212297
0.0216881
0.0219505
0.0220826
0.0220665
0.0218816
0.0216182
0.0212363
0.0209026
0.0177411
0.0180162
0.018346
0.0185773
0.0187356
0.0188496
0.0189536
0.0190325
0.0191832
0.0195904
0.0175344
0.0176239
0.0179089
0.0182615
0.0184962
0.0186723
0.0188161
0.0189845
0.0191692
0.0196044
0.0176522
0.017691
0.0178667
0.0181849
0.0184998
0.0187208
0.0189345
0.0191751
0.0193794
0.0198605
0.0180158
0.01803
0.0180775
0.0182548
0.0185566
0.0188431
0.0191259
0.0194488
0.0197078
0.0202456
0.018307
0.0183928
0.018468
0.0185247
0.018717
0.0189711
0.0192642
0.019616
0.0199911
0.0205615
0.0187041
0.0188635
0.018964
0.0190429
0.0191238
0.0192855
0.0195198
0.019877
0.0203151
0.0208217
0.0194772
0.0196372
0.0196966
0.0197566
0.0198258
0.0199302
0.0201479
0.020451
0.0208181
0.0211593
0.0201635
0.0202315
0.0202701
0.0203234
0.0203998
0.0205233
0.0207265
0.0209057
0.0211527
0.0213398
0.0203615
0.0203583
0.0204043
0.0204957
0.0206022
0.0206871
0.0208343
0.0209981
0.0210716
0.0211069
0.0200311
0.0200036
0.0201198
0.020272
0.0203947
0.0204557
0.0205018
0.0205264
0.0204386
0.0204898
0.0180319
0.0182761
0.0186745
0.0188896
0.019016
0.0190671
0.01908
0.0190505
0.01895
0.0189128
0.0175475
0.0176197
0.0179259
0.01826
0.0184797
0.0185829
0.0186497
0.0186815
0.0187301
0.0188401
0.0174493
0.0174863
0.0176666
0.0179954
0.0182754
0.0184572
0.0186118
0.0187167
0.0187944
0.0189715
0.0175606
0.0176253
0.0177656
0.0180208
0.0182948
0.0185085
0.0187132
0.0189225
0.0190522
0.0192923
0.0177779
0.0179199
0.0180796
0.0182363
0.0184469
0.0186604
0.0188531
0.0190562
0.0192276
0.0194791
0.0179992
0.0182394
0.0184577
0.0186374
0.0187886
0.0189467
0.0190898
0.0192242
0.0193734
0.0196077
0.0184396
0.0187342
0.0189356
0.0190775
0.0191798
0.0192823
0.0193724
0.0194679
0.0196108
0.0197818
0.0189614
0.0191518
0.0192625
0.0193324
0.0193929
0.0194411
0.0195142
0.0196045
0.0197162
0.0198811
0.0192384
0.0193057
0.0193304
0.0193659
0.0194061
0.019445
0.0195035
0.0195939
0.0196749
0.0197912
0.0193877
0.0192774
0.019252
0.0192738
0.0192991
0.0193062
0.0193077
0.0193545
0.0193774
0.0195012
0.0187423
0.0189546
0.019452
0.0196809
0.0197414
0.0196808
0.0195059
0.0192681
0.0189937
0.0186739
0.0177871
0.0178278
0.0181451
0.018488
0.0186749
0.0187153
0.0186922
0.0186086
0.0184785
0.018425
0.0174057
0.017427
0.0176481
0.0179976
0.0182337
0.018357
0.0184119
0.0184431
0.0184354
0.0184609
0.0172812
0.0173713
0.0176089
0.0179125
0.0181693
0.0183404
0.0184416
0.0185247
0.0185772
0.0186966
0.0173416
0.0175423
0.0177937
0.0180594
0.0183012
0.0184931
0.0186266
0.0187271
0.0188041
0.0188928
0.0174894
0.0177909
0.0181049
0.0183874
0.0186058
0.0187728
0.0188706
0.0189234
0.0189624
0.0190165
0.017756
0.0181296
0.0184323
0.0186717
0.0188332
0.0189284
0.0189804
0.0190047
0.0190261
0.0190638
0.0181386
0.0184259
0.018643
0.0187901
0.0188761
0.018929
0.0189492
0.0189728
0.0190026
0.019064
0.0183802
0.0185799
0.0187107
0.0187983
0.0188395
0.0188395
0.0188162
0.0188427
0.0188848
0.0189817
0.0188482
0.0188015
0.0188172
0.0188574
0.0188696
0.0188443
0.0187468
0.0186894
0.0186947
0.0187819
0.0201708
0.0201311
0.0205843
0.0208431
0.0208026
0.0206006
0.0202113
0.0196961
0.0191005
0.0185113
0.0185427
0.0183802
0.0186464
0.0190068
0.0191064
0.0190522
0.0188763
0.0186293
0.0183239
0.018071
0.0176433
0.0175892
0.0177711
0.0181052
0.0182949
0.0183188
0.0182881
0.0181984
0.0180934
0.018021
0.017208
0.0172569
0.0175183
0.01784
0.0180691
0.0181712
0.0181908
0.018183
0.0181461
0.0181625
0.0170445
0.017257
0.0175745
0.0178919
0.0181503
0.0182932
0.0183418
0.018361
0.0183584
0.0183639
0.0171042
0.0174757
0.017851
0.0181784
0.0184266
0.0185801
0.0186278
0.018634
0.0186094
0.0185477
0.0173113
0.0177198
0.0180801
0.0183728