/*--------------------------------*- C++ -*----------------------------------*\
  =========                 |
  \\      /  F ield         | OpenFOAM: The Open Source CFD Toolbox
   \\    /   O peration     | Website:  https://openfoam.org
    \\  /    A nd           | Version:  9
     \\/     M anipulation  |
\*---------------------------------------------------------------------------*/
FoamFile
{
    format      ascii;
    class       volScalarField;
    location    "80";
    object      f14.gas;
}
// * * * * * * * * * * * * * * * * * * * * * * * * * * * * * * * * * * * * * //

dimensions      [0 0 0 0 0 0 0];

internalField   nonuniform List<scalar> 
137980
(
0.00932327
0.00929048
0.00946234
0.00989872
0.0104186
0.0109867
0.0116535
0.0126637
0.0135121
0.0154184
0.00922224
0.00920991
0.00949103
0.0100201
0.0106789
0.011375
0.0121766
0.0131976
0.0144252
0.0154319
0.00911509
0.00910669
0.00942582
0.0100387
0.0107815
0.0115712
0.0125057
0.0135348
0.0148531
0.0154637
0.00894472
0.00895521
0.00928592
0.0099037
0.0107242
0.0116183
0.0126251
0.013713
0.0147966
0.0153974
0.00875635
0.0087749
0.00907308
0.00964447
0.0104715
0.0114608
0.0125227
0.0136276
0.0145852
0.0150808
0.00861479
0.00861562
0.00883524
0.00929545
0.0100167
0.0109996
0.012148
0.0133028
0.0142446
0.0146797
0.00860742
0.00856706
0.00865514
0.00894995
0.00949113
0.0102574
0.0112462
0.0124176
0.0134993
0.0140924
0.00886982
0.00863839
0.0086151
0.00872847
0.00904716
0.00959194
0.0102858
0.0110852
0.0118609
0.0125634
0.00939656
0.00892905
0.00870446
0.00869148
0.00876984
0.00913116
0.00966954
0.0103456
0.0110426
0.0114808
0.0098001
0.00933426
0.00896947
0.0087806
0.00872841
0.0087914
0.00914621
0.00978277
0.0104898
0.0111726
0.00934376
0.00934784
0.00959396
0.0101348
0.0108455
0.0117966
0.0133215
0.0139065
0.0133063
0.0158344
0.00926095
0.00929564
0.00967427
0.0103566
0.0112389
0.0124553
0.0142646
0.0148684
0.0145128
0.0163236
0.0091536
0.00922027
0.00967782
0.0104444
0.0114261
0.0128373
0.0150581
0.01596
0.0158556
0.0170804
0.00899152
0.00908109
0.00954625
0.0103584
0.0114767
0.0130118
0.015494
0.017121
0.0173743
0.0177366
0.00882806
0.00890817
0.00932646
0.0100958
0.0112634
0.0128706
0.015238
0.0176257
0.0184251
0.0184619
0.00875283
0.00878323
0.00905907
0.00970097
0.0107699
0.0123564
0.0145405
0.0173526
0.0185399
0.0189366
0.00889184
0.00880609
0.00885775
0.00926344
0.0100994
0.0113912
0.0132842
0.016087
0.0180881
0.0187939
0.00959921
0.00905321
0.0089031
0.00896581
0.00947141
0.0103981
0.0117358
0.013566
0.0160412
0.017845
0.0107146
0.00973249
0.00916856
0.00893917
0.0090547
0.00966356
0.0106116
0.011875
0.013278
0.0146227
0.0109835
0.0102592
0.0096501
0.00912169
0.00892943
0.00910735
0.00968586
0.0106646
0.011964
0.0122233
0.00936697
0.00943628
0.0098012
0.0104895
0.0114778
0.0131759
0.0150574
0.0145852
0.0133728
0.0165258
0.00930474
0.00945172
0.0100029
0.0109165
0.0122673
0.0146154
0.0161014
0.0156149
0.0143916
0.0168123
0.00922534
0.00943883
0.0100871
0.0111576
0.0128164
0.0156891
0.0171136
0.016804
0.0154664
0.0173186
0.00909256
0.00935253
0.0100524
0.0112258
0.013076
0.0163254
0.0181015
0.0181235
0.0169262
0.0177903
0.00899457
0.00920988
0.00986569
0.011048
0.0130268
0.0165331
0.0189374
0.0191865
0.0183614
0.0185215
0.00903437
0.00911081
0.00956356
0.0106145
0.0125128
0.015973
0.0195064
0.0202755
0.0194183
0.0193366
0.00942957
0.00920557
0.00932216
0.0100492
0.0116435
0.0144947
0.0191657
0.0209077
0.0210059
0.0199945
0.0105874
0.00957179
0.00932488
0.00960482
0.0107006
0.0128887
0.0172107
0.0205428
0.0215368
0.0213018
0.0117597
0.0105874
0.00966978
0.00945333
0.00997251
0.0115296
0.014243
0.0188876
0.0208118
0.0213631
0.0118959
0.0111202
0.0103799
0.00949643
0.00954296
0.0104697
0.0124223
0.0151874
0.0174035
0.0170975
0.00945778
0.00969141
0.0103088
0.0113041
0.0130708
0.0164269
0.0165238
0.014539
0.0142523
0.0201826
0.00947765
0.0098996
0.0108143
0.0123559
0.015575
0.0176567
0.0171676
0.0155527
0.0152755
0.021039
0.00948046
0.0100254
0.011155
0.0130825
0.0168059
0.0185923
0.0182747
0.0165585
0.0161647
0.0214885
0.0094503
0.0100629
0.0112951
0.0134218
0.0174517
0.0194216
0.0193678
0.0175992
0.0169256
0.0217969
0.00944024
0.00999381
0.0112033
0.0134187
0.0176015
0.0201439
0.0203536
0.0186511
0.0177079
0.0217035
0.00952474
0.00989373
0.0108605
0.012924
0.017095
0.0205946
0.0212278
0.0198521
0.0187295
0.0212631
0.00988684
0.00987624
0.0104814
0.0121286
0.0157936
0.0205684
0.0218975
0.021291
0.0200998
0.0211434
0.0108101
0.0101623
0.010277
0.0113686
0.0141179
0.0197826
0.0221026
0.0225835
0.0213353
0.0215902
0.0118194
0.0108247
0.0103882
0.0108223
0.0127756
0.0176026
0.0218175
0.0229866
0.0230469
0.0227156
0.0119638
0.0112736
0.010758
0.0105027
0.011793
0.0155846
0.0203506
0.0223159
0.0229154
0.0219414
0.00997485
0.0106631
0.0123291
0.0145414
0.0163357
0.0163601
0.0146185
0.014077
0.0195279
0.0247443
0.0103578
0.0116375
0.0146988
0.0170807
0.0176526
0.0168053
0.0157659
0.0159053
0.0224968
0.0247266
0.0106621
0.0123928
0.0161233
0.0183133
0.0187056
0.0177971
0.0171986
0.0184733
0.0233589
0.0236079
0.0108827
0.0127488
0.0167718
0.0192424
0.0197184
0.0189993
0.0186221
0.020331
0.0236425
0.0228946
0.0109911
0.0127939
0.0166683
0.0197879
0.0205114
0.0202262
0.0198956
0.021331
0.0238454
0.0234236
0.0109896
0.0124612
0.0157986
0.019912
0.0212385
0.0212939
0.0209304
0.0215194
0.0239175
0.0244037
0.0110431
0.0119727
0.0144221
0.019439
0.021747
0.0222825
0.0217979
0.0218317
0.0237413
0.024617
0.0113875
0.0116804
0.0133707
0.0176714
0.0216328
0.0229357
0.0228558
0.0225244
0.0236747
0.0245235
0.0118801
0.011677
0.0125738
0.0152656
0.0207434
0.0230528
0.023892
0.0235702
0.0240811
0.0247476
0.0119331
0.0117782
0.0121684
0.0138901
0.0191122
0.0226401
0.0241047
0.0246688
0.0249818
0.0255447
0.0128069
0.0130796
0.0131526
0.0137649
0.0149055
0.0144417
0.0142161
0.0181178
0.0250352
0.0248793
0.014929
0.0157042
0.0159965
0.0160821
0.0159593
0.0156929
0.0174655
0.022648
0.0238479
0.0188159
0.016592
0.0173948
0.0176259
0.0176438
0.0175773
0.0183808
0.0213329
0.0223034
0.0198957
0.0142511
0.0175355
0.0186596
0.0190464
0.0192114
0.0195601
0.0208688
0.0214779
0.0210384
0.0152253
0.0128581
0.0181384
0.0196745
0.020356
0.0206846
0.021197
0.0215039
0.021237
0.0185431
0.0140806
0.0128763
0.0181612
0.0203985
0.0214509
0.0218622
0.0219953
0.0216098
0.0205572
0.0171788
0.014253
0.0136556
0.0177226
0.0203649
0.0221051
0.0225839
0.0224867
0.0218545
0.0205608
0.0172418
0.0150177
0.0160303
0.016363
0.0198642
0.022046
0.0229914
0.0230401
0.0223354
0.020987
0.017873
0.0163641
0.0196261
0.0150962
0.0186476
0.021574
0.0230557
0.0234706
0.0229292
0.0219814
0.0194201
0.0178555
0.0200973
0.013949
0.0165677
0.020425
0.0228412
0.0237007
0.023928
0.0233804
0.0224704
0.021582
0.0221971
0.0131523
0.0139386
0.0142909
0.0151164
0.0161843
0.0190442
0.0228201
0.0233226
0.0202715
0.0190361
0.0153615
0.0156888
0.0161602
0.0173677
0.0201175
0.0218571
0.0221489
0.01962
0.0157677
0.0145338
0.0171093
0.0172833
0.0182107
0.0201723
0.0214776
0.0215569
0.0202058
0.0154634
0.0136029
0.0127521
0.0187892
0.0191305
0.0204732
0.021358
0.0214696
0.0207272
0.0170531
0.0137108
0.0126681
0.0122291
0.0203899
0.0209256
0.0217349
0.0218591
0.0212438
0.0191472
0.0148335
0.0131871
0.0127563
0.0126785
0.0215855
0.022072
0.0222669
0.0218667
0.0206869
0.0174139
0.014221
0.013421
0.0134749
0.0154721
0.022225
0.0225818
0.0225718
0.0219474
0.0203313
0.0165975
0.0144382
0.0140472
0.0159233
0.0197013
0.0224704
0.0229133
0.0228671
0.022223
0.0205661
0.0168016
0.0149617
0.0148082
0.0173323
0.021388
0.0223454
0.0230058
0.0231461
0.0225608
0.0211754
0.0175944
0.0157473
0.0154224
0.0174579
0.0211813
0.0220586
0.0229887
0.0232163
0.0230707
0.0223015
0.019503
0.0175834
0.0167316
0.0180296
0.0209147
0.0198121
0.0199306
0.0191842
0.0186719
0.0177197
0.0169143
0.0161185
0.015566
0.0153052
0.0152373
0.0187752
0.0185305
0.0175814
0.0171516
0.0161684
0.0152172
0.0144622
0.0139318
0.0135293
0.0133262
0.0184472
0.0178815
0.0171824
0.0165364
0.0153164
0.0143872
0.0136981
0.0132614
0.013064
0.012849
0.0186237
0.0179956
0.0171868
0.0159188
0.0144685
0.0136368
0.01328
0.0132137
0.0132997
0.0135047
0.0192151
0.018436
0.0173004
0.0155253
0.0141888
0.0136465
0.0135771
0.0145716
0.0158541
0.0163636
0.0200445
0.0191218
0.0175636
0.0155987
0.014247
0.0138318
0.0141146
0.0157118
0.0175647
0.0185828
0.0209061
0.0199553
0.0181208
0.0159019
0.0143951
0.0138713
0.0139075
0.0152966
0.0179368
0.0193858
0.0215931
0.0208375
0.0189219
0.0165778
0.0148031
0.0139095
0.0135611
0.0141735
0.0166929
0.0195745
0.0220223
0.0216021
0.020026
0.017892
0.0157392
0.0143288
0.0136758
0.0138541
0.0148125
0.0185148
0.0222113
0.0222133
0.0210792
0.0194543
0.0180715
0.016157
0.0148574
0.015096
0.0159376
0.0181969
0.0180263
0.0182084
0.0173312
0.0169724
0.0163953
0.0160179
0.0155191
0.0152725
0.0151462
0.0151255
0.0171666
0.0169937
0.0160592
0.0156631
0.015092
0.0148673
0.014724
0.0146692
0.0145237
0.014279
0.0160532
0.0155374
0.0145696
0.0141976
0.0140331
0.0140005
0.0142691
0.0145329
0.0146557
0.0147046
0.0156066
0.0143749
0.0135245
0.0131894
0.0130826
0.0133669
0.0142359
0.0149911
0.0157007
0.0160072
0.0158438
0.0139931
0.0128997
0.0124177
0.0122584
0.0125725
0.0136481
0.0150873
0.0161931
0.0166606
0.0166162
0.0143819
0.0129609
0.0120326
0.011678
0.0116749
0.0125533
0.0145356
0.0163079
0.0169465
0.0180503
0.0155125
0.013476
0.012339
0.0116715
0.0114315
0.011767
0.0128947
0.0150111
0.0166901
0.0195375
0.0168409
0.0146625
0.0133206
0.012636
0.01211
0.012058
0.012455
0.0139144
0.016155
0.0205462
0.0183975
0.0165552
0.0153277
0.0150424
0.0142958
0.0137172
0.0138197
0.014245
0.0160815
0.0211818
0.0195921
0.0179955
0.0179017
0.0181419
0.0167541
0.0159374
0.016041
0.0165327
0.0173966
0.0181998
0.0185057
0.0183405
0.018128
0.0177767
0.0174861
0.0171269
0.0168516
0.0166725
0.0166164
0.0165621
0.0167538
0.0165973
0.0164864
0.0162084
0.0160466
0.0157535
0.0155757
0.0152942
0.0151165
0.0154279
0.0152523
0.0149928
0.0149039
0.0148709
0.0148867
0.0149388
0.0149412
0.014897
0.0148035
0.014387
0.013761
0.0134104
0.0132485
0.0131991
0.0134399
0.0139627
0.0144017
0.0148492
0.0150993
0.0143248
0.0130829
0.0124225
0.0120757
0.0119388
0.0120437
0.0127093
0.0136358
0.0147157
0.0152459
0.0147601
0.0133869
0.0122249
0.0115268
0.011254
0.0112158
0.0115364
0.0123155
0.0138115
0.0152423
0.0164378
0.0142441
0.0126265
0.0116864
0.0111637
0.0110854
0.0112599
0.0118307
0.0130883
0.0150016
0.0178774
0.0156978
0.0134856
0.0122555
0.0117329
0.0117154
0.0118456
0.012262
0.0130456
0.0148441
0.0184737
0.0168428
0.0147632
0.013281
0.0133406
0.0135665
0.0136538
0.0139313
0.0144247
0.0156059
0.0186719
0.0170062
0.0152817
0.0150766
0.0160359
0.0161226
0.0157538
0.0158198
0.0159792
0.0163408
0.0206697
0.0216151
0.0218284
0.021905
0.0216757
0.021307
0.020737
0.0201237
0.0196577
0.0191991
0.0188408
0.0191709
0.0192201
0.0191131
0.018834
0.0183972
0.017856
0.0172467
0.0167731
0.016219
0.0179743
0.0181753
0.0181919
0.0180348
0.0177231
0.0173511
0.0168438
0.0162978
0.0158211
0.0152166
0.0164585
0.0164875
0.0164771
0.0164703
0.0163414
0.0161537
0.0158851
0.0156334
0.0152631
0.0147255
0.0153135
0.0148925
0.0146657
0.0145363
0.014426
0.0143683
0.0143617
0.0143731
0.0142815
0.0141205
0.0148075
0.014161
0.0135035
0.0131429
0.0128884
0.0127044
0.012635
0.0127881
0.0128982
0.0132337
0.0156508
0.0144704
0.01332
0.0125554
0.0120924
0.0118544
0.0117641
0.0118791
0.0119828
0.0125418
0.0170985
0.0154736
0.0137818
0.0126822
0.0120706
0.0118279
0.0117812
0.0118032
0.0119312
0.0124522
0.0175947
0.0169241
0.0149375
0.0132572
0.0126707
0.0125353
0.012646
0.0128116
0.0130831
0.0139086
0.017573
0.0171381
0.015521
0.0139805
0.0140641
0.014196
0.0141207
0.01414
0.0141832
0.0147046
0.0168168
0.0167051
0.0148008
0.0139349
0.0135374
0.0134449
0.0138831
0.0151857
0.0185659
0.0224709
0.019668
0.0180119
0.0166438
0.0157218
0.0154119
0.0159138
0.0178663
0.0196037
0.0202813
0.0203112
0.0206685
0.0202632
0.0193829
0.0189213
0.0188093
0.0192802
0.019495
0.0195165
0.0185337
0.0158297
0.0207094
0.020692
0.0203008
0.0200253
0.0197118
0.0195687
0.0192007
0.0180397
0.0154221
0.0143411
0.0199117
0.0203947
0.0202842
0.0199865
0.0196891
0.0192266
0.0180132
0.0157801
0.014447
0.0137993
0.0185291
0.0195217
0.0196661
0.0195704
0.0191886
0.0182715
0.0166327
0.0148435
0.0140293
0.0137034
0.0180689
0.0183714
0.0186806
0.0186527
0.0183501
0.0174249
0.015733
0.0140172
0.0133482
0.0132943
0.0182515
0.01757
0.0177377
0.0177342
0.0175883
0.0170329
0.0158002
0.0141116
0.0131395
0.0130022
0.0186249
0.0176267
0.0170655
0.0167604
0.016593
0.0163543
0.0158654
0.0145803
0.0134378
0.013484
0.0178467
0.0180759
0.0166187
0.016019
0.0161353
0.0161377
0.0159799
0.0154259
0.0142967
0.014121
0.0237147
0.0234787
0.0224162
0.021338
0.0207798
0.0213433
0.0206877
0.0184342
0.0168117
0.0148048
0.0223375
0.0213889
0.0207031
0.0199029
0.0194706
0.0196173
0.0205527
0.0205277
0.0197948
0.0181096
0.0209514
0.020629
0.0202052
0.0195456
0.0192371
0.0193447
0.0198883
0.0207006
0.0203661
0.0187804
0.0199018
0.0198868
0.0195161
0.0189365
0.0189726
0.0192192
0.0197874
0.0203892
0.0198863
0.0182554
0.0195048
0.0195605
0.0190505
0.0186886
0.0187772
0.0190609
0.0194139
0.0195284
0.0186808
0.0174448
0.0193323
0.0191221
0.0183682
0.0182638
0.0185003
0.018668
0.018765
0.0187391
0.0179186
0.0171685
0.0192282
0.0187592
0.0180302
0.0178827
0.0180378
0.0181631
0.0182173
0.0180821
0.0175463
0.017015
0.0188571
0.0185794
0.0178179
0.0174083
0.0174279
0.0175484
0.0177422
0.0177484
0.0173099
0.0166382
0.0181154
0.0184533
0.0177475
0.017083
0.0168332
0.0168673
0.0170345
0.0172198
0.0167802
0.0164354
0.0170633
0.0178046
0.0175568
0.0169774
0.0166816
0.016618
0.0167568
0.017008
0.0166664
0.0163894
0.0251023
0.0239323
0.0235076
0.0226684
0.0210294
0.0197653
0.0189836
0.0189314
0.0190664
0.019529
0.0221818
0.0216412
0.021267
0.0204762
0.0192202
0.0181993
0.0177263
0.0177506
0.0180142
0.0180656
0.0208147
0.0207242
0.0204271
0.0195783
0.0183607
0.0173662
0.0167783
0.0168251
0.0171255
0.0174176
0.0202621
0.0202391
0.0196592
0.0182484
0.0169257
0.0161575
0.0161062
0.0163066
0.0167895
0.0171731
0.0200369
0.0198531
0.0186552
0.0172325
0.0161798
0.0157929
0.0159105
0.0162658
0.0167839
0.0170731
0.0198123
0.0193206
0.0178369
0.0165857
0.0157716
0.0156674
0.0158931
0.0163959
0.016813
0.017039
0.0194429
0.0188822
0.0174577
0.0162755
0.0156252
0.0156077
0.0160139
0.0165263
0.0167982
0.0169343
0.0190116
0.0185815
0.0172905
0.0161655
0.015585
0.0155866
0.0161313
0.0166875
0.0168372
0.0168888
0.0185936
0.0183328
0.017215
0.0162371
0.0157706
0.0157476
0.0162778
0.0169253
0.017223
0.0174782
0.0182519
0.017966
0.0170265
0.0164409
0.0162332
0.0164531
0.0169187
0.01729
0.0173659
0.0171224
0.0212558
0.0205577
0.0190014
0.0177937
0.0169967
0.0161708
0.0156135
0.0157817
0.0164928
0.0169936
0.0212104
0.0204282
0.0185903
0.0169643
0.0157845
0.0149315
0.0146439
0.014743
0.0151955
0.0155013
0.0204602
0.019412
0.0173538
0.0155988
0.0142847
0.0135729
0.0135393
0.0137186
0.014238
0.0145231
0.0201602
0.018932
0.0167443
0.0146221
0.0134477
0.0129779
0.0129838
0.0131675
0.013686
0.0141719
0.0196526
0.0179703
0.0158523
0.0140083
0.0131311
0.0127889
0.0128165
0.0130243
0.0134997
0.0142517
0.0192483
0.0174991
0.0154812
0.0138276
0.0130598
0.0127888
0.0128223
0.0130768
0.0135534
0.0143896
0.0186916
0.0169888
0.0153265
0.0138281
0.0133087
0.0131737
0.0131235
0.013252
0.0137235
0.0146645
0.0183498
0.0167497
0.015308
0.0142755
0.0139874
0.0139679
0.0138258
0.0137287
0.0139962
0.0148954
0.0181502
0.0165497
0.0154788
0.0148252
0.0147488
0.0150513
0.0150382
0.0149405
0.0149919
0.015505
0.0180554
0.0164511
0.0155942
0.0152521
0.015454
0.0158674
0.0159565
0.0157929
0.0154267
0.0152494
0.0198521
0.0179215
0.0165782
0.0154475
0.0147571
0.0141025
0.0136651
0.0139801
0.0149798
0.0164085
0.0200658
0.0180689
0.0164069
0.0149825
0.0140452
0.0134186
0.0130689
0.0131703
0.0136848
0.0138839
0.0194769
0.0173858
0.015698
0.0143299
0.0135063
0.0129387
0.0125996
0.0126216
0.0128578
0.01308
0.0191953
0.0170878
0.0154052
0.0140582
0.0132983
0.0127785
0.0124366
0.012324
0.0124224
0.0126631
0.0185487
0.016494
0.0150252
0.0139347
0.0132357
0.012756
0.0124178
0.0122399
0.0122944
0.0126369
0.0182216
0.0162088
0.0148558
0.0139038
0.0133349
0.0129699
0.012627
0.0123385
0.0123604
0.0128716
0.0176652
0.0157378
0.0146935
0.0140184
0.0137673
0.013513
0.0131263
0.0126951
0.0125829
0.013159
0.0173674
0.0155127
0.0146231
0.0143245
0.014329
0.0142559
0.013886
0.0133819
0.0130988
0.0132644
0.0171435
0.0152422
0.0145484
0.014506
0.0148041
0.0148384
0.0145784
0.0142346
0.0141624
0.014276
0.0170739
0.0150595
0.0144884
0.0146596
0.0150477
0.0151051
0.0148663
0.0145552
0.014306
0.0137814
0.0219702
0.0212067
0.0201889
0.018925
0.01816
0.0175183
0.017306
0.0171251
0.0165752
0.0148805
0.0220649
0.0213527
0.0204147
0.0188793
0.0179055
0.0172281
0.016707
0.016376
0.0157192
0.0152115
0.0217066
0.0212708
0.0205295
0.0189574
0.0178641
0.0170832
0.0162903
0.0156908
0.0149841
0.0139464
0.0213471
0.020988
0.0206621
0.0193936
0.0181061
0.0170453
0.0159829
0.0150817
0.0141176
0.012855
0.0208592
0.0206124
0.0206816
0.0197246
0.0183937
0.0170824
0.0158124
0.0147725
0.0137092
0.012328
0.0205773
0.019997
0.0206013
0.0199842
0.0186797
0.0173619
0.015796
0.0146697
0.0135685
0.0122006
0.0204743
0.0191124
0.020264
0.0200978
0.0189678
0.0176989
0.016133
0.0148231
0.0138564
0.0125853
0.0206417
0.0180414
0.0196891
0.0201274
0.0191043
0.0181052
0.0166228
0.0152315
0.0143398
0.0134701
0.0212744
0.0171348
0.018694
0.019943
0.0191608
0.0183949
0.0174162
0.0157979
0.0147401
0.0141448
0.0214921
0.0166726
0.0171611
0.0194136
0.0191549
0.0185104
0.0180668
0.0174451
0.0166051
0.0160549
0.02268
0.0203327
0.0194204
0.0188076
0.0182284
0.0176521
0.016818
0.0158791
0.015581
0.0159272
0.0225175
0.0205618
0.0194767
0.0188129
0.0181245
0.0174083
0.0164406
0.0155015
0.015313
0.0154115
0.0226708
0.0203973
0.0191572
0.018649
0.0180512
0.0173366
0.016288
0.0153228
0.0148667
0.0145669
0.0227162
0.0201487
0.0188967
0.0185679
0.0180487
0.0173262
0.0162102
0.0151152
0.0144429
0.014113
0.0224587
0.019675
0.0184244
0.0183274
0.0180785
0.0174103
0.0161862
0.0149945
0.0142247
0.0136061
0.0219143
0.0190976
0.0180228
0.0181577
0.0181523
0.0176232
0.0162717
0.0149197
0.0140532
0.0131581
0.0216117
0.0184591
0.0175593
0.017898
0.0181945
0.0178096
0.0165109
0.0148975
0.0140376
0.0131844
0.0211522
0.0179133
0.0170993
0.0176692
0.0181707
0.01786
0.0167178
0.0151022
0.0143701
0.0138232
0.020961
0.0175139
0.0166063
0.0173113
0.0179916
0.017805
0.016753
0.0151646
0.0143997
0.0136892
0.0209075
0.0172671
0.016119
0.0169449
0.0175734
0.0175011
0.0166695
0.0151266
0.0140723
0.0133184
0.0195456
0.0177721
0.016792
0.0163674
0.0161569
0.0160104
0.0161067
0.0167934
0.0170291
0.0172571
0.0195504
0.0180567
0.0173937
0.0169229
0.0166617
0.0165539
0.016623
0.0170767
0.0172724
0.0176464
0.0203272
0.0185827
0.0179104
0.0174158
0.0171653
0.0170751
0.0172344
0.0177167
0.0180317
0.0183345
0.0214057
0.0192733
0.0184274
0.0179841
0.0177822
0.0177583
0.0180187
0.0181779
0.0181942
0.0178614
0.0223932
0.0200177
0.0189873
0.0185086
0.0182853
0.0182438
0.0182817
0.0182381
0.0179812
0.0166047
0.0229181
0.020941
0.0195264
0.0189583
0.018621
0.0184564
0.0183539
0.018152
0.0174054
0.0162754
0.0232288
0.0217289
0.0200286
0.0193504
0.0188635
0.0185627
0.0183598
0.0179286
0.0169976
0.0161489
0.0232124
0.0224002
0.0207848
0.0197343
0.0192421
0.01872
0.0183563
0.0177221
0.0167735
0.0158138
0.0230116
0.0226666
0.0215936
0.0202754
0.0196622
0.0189534
0.0184384
0.0176879
0.0165117
0.0157998
0.0225057
0.0226556
0.0217634
0.0205912
0.019987
0.0194406
0.0187625
0.0178571
0.0165694
0.0163788
0.0135168
0.0136674
0.0125056
0.0119784
0.0115334
0.0115668
0.0120543
0.0129137
0.0135787
0.014613
0.014071
0.0135176
0.0124064
0.0120171
0.011824
0.0119672
0.0124287
0.0133249
0.0141692
0.0155984
0.0148052
0.0136081
0.0127241
0.0124034
0.0123363
0.0124648
0.0130001
0.0138437
0.015387
0.0160037
0.0154847
0.0140454
0.0133467
0.0130765
0.0129874
0.0130105
0.013676
0.0150292
0.0158451
0.0152603
0.0157879
0.0145016
0.0139796
0.0138172
0.0136923
0.01398
0.014885
0.0156485
0.0157646
0.0142733
0.0159606
0.0148124
0.0143779
0.0143002
0.0144748
0.0148119
0.0155462
0.0159913
0.0155913
0.013463
0.0161046
0.0152632
0.014963
0.0149589
0.0151312
0.0154766
0.016058
0.0161186
0.0152782
0.0133062
0.0163134
0.0157208
0.0154604
0.0154654
0.01565
0.0160869
0.016331
0.0162535
0.0153257
0.0133485
0.0167532
0.0164606
0.016137
0.0160785
0.0161161
0.0163413
0.0166385
0.0165375
0.0156
0.0134528
0.0170053
0.0168943
0.0166881
0.0165924
0.0166118
0.0166941
0.0169043
0.0168879
0.016061
0.0137848
0.00763837
0.00823378
0.00882359
0.00997541
0.0115055
0.0114749
0.0118301
0.0115401
0.00804704
0.00734319
0.00821613
0.00891047
0.00977253
0.0102413
0.0113257
0.0114434
0.0119157
0.0117867
0.00890827
0.00751477
0.00891405
0.00929004
0.00972575
0.0108171
0.0111482
0.0112011
0.0116279
0.0114166
0.00904171
0.00732154
0.0094589
0.00974576
0.0103934
0.0106878
0.0107107
0.0108822
0.0112065
0.0109348
0.00941185
0.00758323
0.00892333
0.0106509
0.010508
0.0104265
0.0104726
0.0104151
0.010162
0.00992024
0.00923243
0.00839052
0.00903437
0.0101428
0.00998275
0.00990172
0.00970937
0.00959049
0.00929604
0.00917426
0.00863442
0.00815766
0.00896655
0.00976144
0.00966993
0.00961137
0.0094596
0.00912728
0.00919222
0.00906055
0.0084798
0.00770548
0.00860986
0.00994812
0.00985404
0.0097632
0.00979624
0.00961013
0.0094649
0.00868767
0.00809072
0.00746103
0.00829671
0.00971151
0.0096687
0.00966472
0.00980618
0.00982597
0.00950578
0.00858223
0.00791105
0.00736287
0.00831497
0.00901558
0.00909605
0.00943268
0.0096265
0.00965138
0.00919606
0.00840368
0.00815597
0.00750487
0.00705117
0.00730288
0.00735668
0.00731639
0.00702565
0.00649836
0.0059783
0.00577115
0.00568604
0.00565025
0.0071442
0.00727805
0.0072805
0.00707931
0.00663919
0.00607351
0.0058365
0.00575121
0.00571621
0.00562424
0.00716931
0.00724045
0.00719793
0.0068606
0.0063669
0.00592318
0.00578206
0.00571935
0.00563503
0.00561902
0.00714936
0.0071622
0.00703333
0.00668888
0.00622874
0.0058824
0.00575736
0.00566048
0.00562164
0.00561883
0.00710729
0.00710823
0.00693619
0.00659818
0.006235
0.00590611
0.00578206
0.00566447
0.00568284
0.0057117
0.00704899
0.00701077
0.0067996
0.00654244
0.00627533
0.00600598
0.00583039
0.00582603
0.00580397
0.0057531
0.00695745
0.00690517
0.00669683
0.00645672
0.00629951
0.00616782
0.00603591
0.00596696
0.00582631
0.00570989
0.0068996
0.00678046
0.00645053
0.00581138
0.00589283
0.0059884
0.00596783
0.00591202
0.00562919
0.00556659
0.00679259
0.00627711
0.00566876
0.00553553
0.00551583
0.00561646
0.00562053
0.00559371
0.00552679
0.00548768
0.0066611
0.00611723
0.00558968
0.00556692
0.00553647
0.00559545
0.00557126
0.00543757
0.00525529
0.00516352
0.00790511
0.00803224
0.00807803
0.00809135
0.00804953
0.00793836
0.00767884
0.00719303
0.00660628
0.00631035
0.00782615
0.00786807
0.0078524
0.00777473
0.00761462
0.00726308
0.00674222
0.0062741
0.0058989
0.00571781
0.00758634
0.0075152
0.00740173
0.00713738
0.00678444
0.00633999
0.00594367
0.00566024
0.00552387
0.00547348
0.00709221
0.00699567
0.00664606
0.0063465
0.00599482
0.00564179
0.0054493
0.00536704
0.00534839
0.00538344
0.00642548
0.00625887
0.0058917
0.00569396
0.0053792
0.0052275
0.00515144
0.00512946
0.00514254
0.0052255
0.00594627
0.0057198
0.00542314
0.0052812
0.00508276
0.00500141
0.00492111
0.0049138
0.00493386
0.00501349
0.00539383
0.00513369
0.00491871
0.00474883
0.00466918
0.00468027
0.00473004
0.00474763
0.00481158
0.00489495
0.00493345
0.00480719
0.00463061
0.00455422
0.00453505
0.00451793
0.00459925
0.00464999
0.00467938
0.00469481
0.00482327
0.00465822
0.00457324
0.0045487
0.00454251
0.00449724
0.00457571
0.00459068
0.00461762
0.00461829
0.00486638
0.00468009
0.00456553
0.00455735
0.00456352
0.00449428
0.00449829
0.0045712
0.00456945
0.00434507
0.00523758
0.00505664
0.00505961
0.0050536
0.00505968
0.00514655
0.00525018
0.00534401
0.00545976
0.00565169
0.00520308
0.00496895
0.00497175
0.00497712
0.0050216
0.00513321
0.00522011
0.00530978
0.00546432
0.00575823
0.00525046
0.00495469
0.00488168
0.0049215
0.00498575
0.00508133
0.00516113
0.00524887
0.0054327
0.0058017
0.00544331
0.00505042
0.00488674
0.00484179
0.00488697
0.00495736
0.00503853
0.00516032
0.00531755
0.00554628
0.00584411
0.00538336
0.00506711
0.00490724
0.00486535
0.0048631
0.0049086
0.00502882
0.00512337
0.00514176
0.00603606
0.00570934
0.00538705
0.00509061
0.00491034
0.00482828
0.00480096
0.00483398
0.00483731
0.00472623
0.00605989
0.00582155
0.0055965
0.00529354
0.00501774
0.00483796
0.00470194
0.00460299
0.00453439
0.00441448
0.00596315
0.00580617
0.00562041
0.00538894
0.00512155
0.00488107
0.00466233
0.00445157
0.00433733
0.0042689
0.0057565
0.00570585
0.00558691
0.00541468
0.00517125
0.00493058
0.00467762
0.00440961
0.00426636
0.00421406
0.00546489
0.00543555
0.00540829
0.0053419
0.00518808
0.00495399
0.00471273
0.00441745
0.00424807
0.00419348
0.0103127
0.0105307
0.0107846
0.011208
0.0115835
0.0119425
0.012567
0.0137688
0.015117
0.0144512
0.0104645
0.0105579
0.010763
0.0111058
0.0114641
0.0118615
0.0124591
0.0135064
0.0149246
0.0144738
0.0111852
0.0108961
0.0108973
0.0111109
0.0114716
0.0118973
0.0124965
0.0135397
0.0149222
0.0146041
0.0120247
0.0116163
0.0114114
0.0113535
0.0115415
0.0119799
0.0126105
0.0137268
0.014952
0.0146733
0.0127964
0.0123896
0.0120474
0.0118946
0.011957
0.0123367
0.0131875
0.0142981
0.0150214
0.0146963
0.0143472
0.0138519
0.0133507
0.0130421
0.0132094
0.0136196
0.0144727
0.0152591
0.0151366
0.0146799
0.0165393
0.0157362
0.0153063
0.0151535
0.0152668
0.0155314
0.0155155
0.0153451
0.0149985
0.0145329
0.01644
0.0161355
0.0160271
0.0158269
0.015622
0.0154024
0.0152511
0.0150123
0.0146291
0.0141425
0.0147362
0.0147893
0.014973
0.0149868
0.0149639
0.0148021
0.0145605
0.0143117
0.0139791
0.0135612
0.0126924
0.0132052
0.0136352
0.0139059
0.0140645
0.0139731
0.0137776
0.0135334
0.0131995
0.0127307
0.00967479
0.00989473
0.0100658
0.0103273
0.0106325
0.0108715
0.0111326
0.0115085
0.0121767
0.0132177
0.00973931
0.00983094
0.0100288
0.0102991
0.0105505
0.0107478
0.0110606
0.0114512
0.0121135
0.0130772
0.0101739
0.0100661
0.0101139
0.010295
0.0105749
0.0108035
0.0111093
0.0114766
0.0121241
0.0130408
0.0106782
0.0105531
0.010448
0.0104922
0.010674
0.0109191
0.0111973
0.0115883
0.0122123
0.0131124
0.0111084
0.0110297
0.0108711
0.0108518
0.0109274
0.011103
0.0113738
0.0117955
0.0124566
0.013284
0.0119574
0.0118682
0.0117016
0.0115727
0.0115141
0.0115926
0.01182
0.0122915
0.0129538
0.0136284
0.0137161
0.0134963
0.0131641
0.0129001
0.0127212
0.0127289
0.0129259
0.0133697
0.0136931
0.0138207
0.0144678
0.0143045
0.0141009
0.0139399
0.0138626
0.0138314
0.0139489
0.0140067
0.0139164
0.0137022
0.0141085
0.0141039
0.0141214
0.0141218
0.0141067
0.0140261
0.0139128
0.0138036
0.0136057
0.0133389
0.0124726
0.0128356
0.0132792
0.0134847
0.0135383
0.0134856
0.0133637
0.0131796
0.0128897
0.0126595
0.00953287
0.00967633
0.0098939
0.0100914
0.0102749
0.0104769
0.0106456
0.0108045
0.0109802
0.0114558
0.00946357
0.00950786
0.00966976
0.00991743
0.0101218
0.0102849
0.0104375
0.0106387
0.0109245
0.0113394
0.00962354
0.00962903
0.00971005
0.00989384
0.0101179
0.0103071
0.0104965
0.010674
0.0109548
0.0113397
0.0100122
0.00998083
0.009957
0.010019
0.0102013
0.0103917
0.0106186
0.0108186
0.0110817
0.0114226
0.0102421
0.0102783
0.0102821
0.0102911
0.0103735
0.0105652
0.0107865
0.0109574
0.0111913
0.0115378
0.0106829
0.0107866
0.0108309
0.0108253
0.0108176
0.0108986
0.0110671
0.0112106
0.0114135
0.0117416
0.0118113
0.0119349
0.0118804
0.0117829
0.0116994
0.0116408
0.0116723
0.0117537
0.0119044
0.012088
0.0125805
0.0125934
0.0125419
0.0124625
0.0123819
0.0123297
0.0122933
0.0122839
0.0123326
0.0124188
0.0125695
0.0125739
0.0125562
0.0125362
0.0125113
0.0124801
0.0124273
0.0124048
0.0123916
0.0123782
0.0119176
0.0119064
0.0120583
0.0121596
0.0121874
0.0122386
0.0122384
0.0122064
0.012092
0.0121398
0.00962952
0.00976361
0.0100214
0.0101936
0.0103482
0.0104692
0.0105453
0.0106169
0.0106294
0.010763
0.00936067
0.00939481
0.00957198
0.00980807
0.00999377
0.010118
0.0101857
0.0102611
0.0104124
0.0105602
0.00938469
0.00940507
0.00952131
0.00971942
0.00989469
0.0100635
0.010189
0.0102773
0.010438
0.0105759
0.00959563
0.00962441
0.00966728
0.00979959
0.00996827
0.0101294
0.0102855
0.0104201
0.0106104
0.0107552
0.00978169
0.00983502
0.00994899
0.0100489
0.0101738
0.0103031
0.0104543
0.0105777
0.0107364
0.010881
0.0100065
0.0101732
0.010358
0.0104929
0.0105936
0.0106496
0.010746
0.0108511
0.0109443
0.0110089
0.0105973
0.0109441
0.011115
0.0111776
0.0111856
0.0111759
0.0111476
0.0111661
0.0111999
0.0112063
0.0112948
0.0115017
0.0115586
0.0115526
0.011528
0.0114754
0.0114331
0.0113986
0.0113508
0.0113503
0.0114989
0.0115609
0.0115673
0.0115583
0.0115223
0.0114749
0.0114448
0.0113949
0.0113622
0.011357
0.0113543
0.011311
0.0112501
0.0112339
0.0112269
0.0112217
0.0112305
0.0112206
0.0112096
0.0112476
0.00992758
0.0100427
0.0103595
0.0105276
0.0106404
0.0106785
0.010674
0.0106422
0.010508
0.0104267
0.00943795
0.00946124
0.00965584
0.00990055
0.0100537
0.0101132
0.0101144
0.0101106
0.0101261
0.010126
0.00926603
0.00929074
0.00944779
0.00966015
0.0098284
0.0099541
0.0100221
0.0100627
0.0101099
0.010148
0.00931371
0.00935296
0.00949269
0.00969636
0.00985538
0.00998503
0.0100785
0.0101437
0.0102216
0.0103305
0.00945224
0.00956386
0.00973077
0.00992096
0.0100797
0.0101845
0.0102938
0.0103749
0.0104427
0.0105137
0.00959278
0.00979276
0.0100856
0.0103253
0.0105046
0.010572
0.0106295
0.0106604
0.0106557
0.0106806
0.00992451
0.0103317
0.0106326
0.0108126
0.0108982
0.0109162
0.0108965
0.0108304
0.0107881
0.0107723
0.0104577
0.0107812
0.0109574
0.0110318
0.0110407
0.0110153
0.01094
0.0108579
0.0108213
0.0107892
0.0107181
0.0109043
0.0109781
0.0109996
0.0109834
0.0109178
0.0108587
0.0107774
0.0107618
0.0107541
0.0109522
0.0109348
0.0108942
0.010848
0.0108236
0.0107666
0.0107053
0.0106059
0.0106015
0.0106154
0.0106339
0.010625
0.0109832
0.0112183
0.0112342
0.0111709
0.011002
0.0107742
0.0104649
0.0102031