/*--------------------------------*- C++ -*----------------------------------*\
  =========                 |
  \\      /  F ield         | OpenFOAM: The Open Source CFD Toolbox
   \\    /   O peration     | Website:  https://openfoam.org
    \\  /    A nd           | Version:  9
     \\/     M anipulation  |
\*---------------------------------------------------------------------------*/
FoamFile
{
    format      ascii;
    class       volScalarField;
    location    "80";
    object      f17.gas;
}
// * * * * * * * * * * * * * * * * * * * * * * * * * * * * * * * * * * * * * //

dimensions      [0 0 0 0 0 0 0];

internalField   nonuniform List<scalar> 
137980
(
0.00238102
0.00239493
0.0025321
0.00279506
0.00306747
0.00328546
0.00340159
0.00351326
0.00375019
0.00454492
0.00234758
0.00235557
0.00252809
0.00283325
0.00316155
0.00343377
0.00357011
0.00366205
0.00394711
0.00436367
0.00230812
0.00231296
0.00248388
0.00281495
0.00318909
0.00351237
0.00374374
0.00383819
0.00400263
0.00424852
0.00224842
0.00225838
0.0024194
0.00273487
0.00313787
0.00350143
0.00384432
0.00402121
0.0041038
0.00425046
0.00218892
0.00220019
0.00232828
0.00260179
0.0029996
0.00340736
0.00380338
0.00409447
0.00423816
0.00429553
0.00214661
0.0021472
0.00222952
0.00243528
0.00276073
0.00317024
0.00362702
0.00401815
0.00422252
0.00430022
0.0021487
0.0021327
0.00215773
0.00227687
0.00250974
0.00281286
0.00318975
0.00364746
0.00400878
0.00417712
0.00225594
0.00215402
0.00213992
0.00217983
0.00231434
0.00252777
0.00277053
0.00304082
0.00331954
0.00355226
0.00243264
0.00227081
0.00215957
0.00215294
0.00219716
0.00234822
0.00254562
0.00277376
0.00301771
0.00316687
0.00257195
0.00238967
0.00223173
0.00216646
0.00214814
0.0022017
0.00234683
0.00259161
0.00279747
0.00313745
0.00241835
0.00244503
0.00260164
0.0028825
0.00318266
0.00348904
0.00377688
0.00382503
0.00356362
0.0047654
0.00238412
0.00241843
0.00262418
0.00294194
0.00330631
0.00371099
0.00404592
0.00410907
0.00387749
0.00486614
0.00233881
0.00238049
0.00260326
0.00296053
0.00336263
0.00386358
0.00436131
0.00449465
0.00434827
0.00509012
0.00227349
0.00231887
0.00253186
0.00289215
0.00335098
0.00390606
0.00462059
0.00489831
0.00481677
0.0052507
0.00221002
0.00224365
0.00242149
0.00275351
0.00322484
0.00381751
0.00455655
0.00513566
0.00524594
0.00531703
0.00217859
0.00218816
0.00229072
0.00255401
0.00297557
0.00357288
0.00432913
0.005092
0.00537409
0.005459
0.00221725
0.00218048
0.00220113
0.00235014
0.00267164
0.00313848
0.00381321
0.00473516
0.00527392
0.00544284
0.00246123
0.0022438
0.00220039
0.00222583
0.00241151
0.00273368
0.00316526
0.0037778
0.0045943
0.00516706
0.00288417
0.00249867
0.00227641
0.00221143
0.00225328
0.00247371
0.00277894
0.00316482
0.00362393
0.00405058
0.00294307
0.00268608
0.00242176
0.00225213
0.0021998
0.00227588
0.00248223
0.00282512
0.00320548
0.00333079
0.00242456
0.0024672
0.00264638
0.00295469
0.0033544
0.00397126
0.00453509
0.00386879
0.0034919
0.00494336
0.0023947
0.00245727
0.00269725
0.00308282
0.00360853
0.00439308
0.00481605
0.00410579
0.00370466
0.0049667
0.00235296
0.0024334
0.00270587
0.00314194
0.0037805
0.00481653
0.0052476
0.0045039
0.00394293
0.00503047
0.0022895
0.00237987
0.00265324
0.00312359
0.00384665
0.00506545
0.0056339
0.00506638
0.00439931
0.00513178
0.00224438
0.00230374
0.00254067
0.0029952
0.00376499
0.00512407
0.00591955
0.00558398
0.00500093
0.00529464
0.00224344
0.00225225
0.0023893
0.00276834
0.00348262
0.00484501
0.00611114
0.00616711
0.00540592
0.00555678
0.0024016
0.00227536
0.00228927
0.00251186
0.00307035
0.00417428
0.00597867
0.00653024
0.00613987
0.00574604
0.0029685
0.00244073
0.00229315
0.00234089
0.00267711
0.00342828
0.00507175
0.00631326
0.00647795
0.00619943
0.0036149
0.00297466
0.00248446
0.00231026
0.0024228
0.00290716
0.00382567
0.00550013
0.00617383
0.00623452
0.00354862
0.00318406
0.00284209
0.00235665
0.00231784
0.00255998
0.00316757
0.00406897
0.00474733
0.00459461
0.00243926
0.00252061
0.00276088
0.00316355
0.00393256
0.00537678
0.00497602
0.00398303
0.0037742
0.00672071
0.00242351
0.00255766
0.00291287
0.00354082
0.00493166
0.0057469
0.00490246
0.00410184
0.00404307
0.00704402
0.00239647
0.00256997
0.0029882
0.00379649
0.00545767
0.00608743
0.00514835
0.00435828
0.00426559
0.00728862
0.0023535
0.00254335
0.00299617
0.00389598
0.0057529
0.00648864
0.00569003
0.00468633
0.00444305
0.00726975
0.00233256
0.00247339
0.00289086
0.00380458
0.00581531
0.00683875
0.00631034
0.0050537
0.00461763
0.00711162
0.00235219
0.00241623
0.00269891
0.00350703
0.00551405
0.00704661
0.00693441
0.00551931
0.00495358
0.00663898
0.00252128
0.0024235
0.00253966
0.00309592
0.00473175
0.00701895
0.00743758
0.00610865
0.00546825
0.0062992
0.00311281
0.00257671
0.00249739
0.0027619
0.00389976
0.00660193
0.00749567
0.00709253
0.0061461
0.00644636
0.00374868
0.00306089
0.0026249
0.00259353
0.00323946
0.00542328
0.00721932
0.00740554
0.00691973
0.00683602
0.00376755
0.00333906
0.0029111
0.00257495
0.00285464
0.00434242
0.00642697
0.00699897
0.00683245
0.0063158
0.00254888
0.00279316
0.00345033
0.00466349
0.00549146
0.00523173
0.00418032
0.00379006
0.00613034
0.00989239
0.00264153
0.00313892
0.0045532
0.00570842
0.0058939
0.00500836
0.00436865
0.00437865
0.00789841
0.00998904
0.00269806
0.0033748
0.00513752
0.00608872
0.00612594
0.00517541
0.00478862
0.00538986
0.00877265
0.00958751
0.00272449
0.00346178
0.00537691
0.00642772
0.00646775
0.00564658
0.00540515
0.00648057
0.00909843
0.00928199
0.00273101
0.00339232
0.00520381
0.00667891
0.00688534
0.00619023
0.00594458
0.00689693
0.00920615
0.00954483
0.00271646
0.00319014
0.00466099
0.00669971
0.0072302
0.00670643
0.0064562
0.00683243
0.00913995
0.00993885
0.00278627
0.00297591
0.00396071
0.00644142
0.00740935
0.00734938
0.00684013
0.00682206
0.00882389
0.00990382
0.00309476
0.0029464
0.00343485
0.00537744
0.00735328
0.00786472
0.00725536
0.00700225
0.00813958
0.00954169
0.00354703
0.00315569
0.00316417
0.00420343
0.00693149
0.00797387
0.00810857
0.00759106
0.00821759
0.00913873
0.00369767
0.00332995
0.00318065
0.00358715
0.00592054
0.00779111
0.00832059
0.00835318
0.00849739
0.00908634
0.00381513
0.00392339
0.00393444
0.00422011
0.0047214
0.00410978
0.00389018
0.00541049
0.0100542
0.0102968
0.00488775
0.00523564
0.00537169
0.00531418
0.00482111
0.00447843
0.00508454
0.00850944
0.00957605
0.00767069
0.0054735
0.00583022
0.00590942
0.00554864
0.00525977
0.00542909
0.00754171
0.00840868
0.00776108
0.00506792
0.00583932
0.00632425
0.00641647
0.00619803
0.00616738
0.00694178
0.00783888
0.00792058
0.00556703
0.00463238
0.00603955
0.00671416
0.00691122
0.00689593
0.00703398
0.00757173
0.00775849
0.00686972
0.00501939
0.00467262
0.00592958
0.00696122
0.00741959
0.00752279
0.00759439
0.00765568
0.00750642
0.00611397
0.0051089
0.00504551
0.00546211
0.00688745
0.00770531
0.00796675
0.00794214
0.00782576
0.00743266
0.00610602
0.00542288
0.0063792
0.00474396
0.00657296
0.00765474
0.00825714
0.00829462
0.00810291
0.00752623
0.00628048
0.00590809
0.00827706
0.00447107
0.00576176
0.00739442
0.00826667
0.00856191
0.00836724
0.00783424
0.00675489
0.00636977
0.00805739
0.00417454
0.0048761
0.00676518
0.00811996
0.0088159
0.00897948
0.00851799
0.00783602
0.00749488
0.00825738
0.00369456
0.00401068
0.00397442
0.00416192
0.00439732
0.00570105
0.0085081
0.00913349
0.00810891
0.00763693
0.00490216
0.00481098
0.00476656
0.00491006
0.00614365
0.00778304
0.00823217
0.00751983
0.00561227
0.00503267
0.00556433
0.00548392
0.00554415
0.00625107
0.00737362
0.00766837
0.00741278
0.00533646
0.0045688
0.0042959
0.00631786
0.00628201
0.00658943
0.00727724
0.00749737
0.00740247
0.00593823
0.00455168
0.00425606
0.00420911
0.00712927
0.00716014
0.00752909
0.00764589
0.00755199
0.00681422
0.00498239
0.00440384
0.00430508
0.0045767
0.0078027
0.00792842
0.00799804
0.00788668
0.00742476
0.00606426
0.00478809
0.0045315
0.00492891
0.0067515
0.00822714
0.00834452
0.0083232
0.00804746
0.00736621
0.00569761
0.00495893
0.00497566
0.00672073
0.00933173
0.0083967
0.00861511
0.00857991
0.00824289
0.00748665
0.00584287
0.0053036
0.00549905
0.00762153
0.010062
0.00829203
0.00876913
0.00881725
0.00849404
0.00784418
0.00621973
0.00565177
0.00569981
0.00727504
0.00968066
0.00815079
0.00881723
0.00901541
0.00886094
0.0084331
0.00708879
0.00642034
0.00619208
0.00712634
0.00895402
0.00707922
0.0071564
0.006836
0.00665622
0.00634286
0.00595226
0.00563166
0.00546247
0.00539864
0.00548004
0.00649703
0.00637999
0.00595358
0.0057823
0.00539398
0.00499192
0.00468184
0.00453453
0.00447859
0.00447487
0.00629724
0.00603097
0.0057196
0.00544466
0.00497078
0.00461643
0.00445071
0.00437973
0.00438003
0.00447362
0.00643873
0.00609694
0.00578673
0.00526378
0.0047879
0.00458442
0.00451507
0.00465533
0.0050399
0.00534532
0.00683188
0.00635814
0.00599605
0.00527411
0.00486908
0.00476687
0.00511414
0.00620992
0.00709631
0.00745226
0.00739058
0.00686643
0.0062302
0.00543994
0.00515748
0.00515921
0.00582742
0.00710818
0.00819727
0.00871774
0.00797417
0.00750746
0.00667375
0.00577229
0.00536287
0.0052513
0.00562314
0.00685479
0.00848069
0.00907895
0.00849377
0.00810696
0.00720912
0.00622575
0.00557311
0.00526185
0.00517631
0.00575613
0.00754185
0.00913528
0.00893571
0.0086208
0.00798972
0.00686825
0.00601962
0.00541054
0.00516928
0.00528863
0.00597334
0.0082936
0.0093266
0.00904327
0.00854981
0.00773814
0.00727738
0.00633498
0.00560486
0.00565803
0.00603301
0.00770461
0.0060766
0.00609483
0.00568935
0.00553843
0.00534003
0.00525602
0.00521723
0.00521317
0.0052819
0.00543429
0.0058497
0.00570388
0.00534394
0.00521044
0.00510723
0.0050852
0.00509937
0.00512766
0.00513093
0.00512194
0.00551842
0.00527756
0.00502929
0.00496839
0.00499443
0.00521982
0.00555643
0.00575544
0.00591739
0.00602137
0.00547719
0.00493881
0.0047304
0.00469758
0.00485717
0.00527817
0.00585378
0.00640851
0.00672567
0.00686535
0.00572491
0.00485586
0.00451048
0.0044164
0.00448015
0.00486788
0.00568411
0.00664364
0.00709406
0.00723045
0.00640196
0.00509069
0.00453806
0.00420976
0.00411514
0.00427332
0.00502505
0.00639005
0.00721432
0.00736114
0.00752527
0.00586361
0.0048263
0.00434572
0.00407792
0.00398228
0.00435783
0.00503631
0.00646049
0.00707865
0.00849537
0.00680882
0.00549795
0.0048627
0.00460049
0.00432048
0.00434059
0.004603
0.0054317
0.00657967
0.00914659
0.00796054
0.00687519
0.0061134
0.00600422
0.00564021
0.00515512
0.00511687
0.00525902
0.00632673
0.00933242
0.00855555
0.00777707
0.00761428
0.00799826
0.00716046
0.00647404
0.00644284
0.00661846
0.00703402
0.0064432
0.00654879
0.00640426
0.00633689
0.0061962
0.00613195
0.00610118
0.00610368
0.00622996
0.0063771
0.00578215
0.00584197
0.00576004
0.00572674
0.00567022
0.00564858
0.0056386
0.00564285
0.00566209
0.00572937
0.00538633
0.00529289
0.00524922
0.00525635
0.00532329
0.00546243
0.00559055
0.00571046
0.00582658
0.00592701
0.00493968
0.00465731
0.00455457
0.00454665
0.00468761
0.00504092
0.00546224
0.00584221
0.00612694
0.00625873
0.00507001
0.00438966
0.00405244
0.00393331
0.0039136
0.00419654
0.00475566
0.00552478
0.00612177
0.0063229
0.00552458
0.00469267
0.00404558
0.00364523
0.00353059
0.0035503
0.00381387
0.0044086
0.00540823
0.00622593
0.00692383
0.00548995
0.00437916
0.00382244
0.00352393
0.00348505
0.00360483
0.00398426
0.00475632
0.00598187
0.00802716
0.00663884
0.0050716
0.00425446
0.0039269
0.00394118
0.00402202
0.00423009
0.00465505
0.00578308
0.0084916
0.00752312
0.0060944
0.00496683
0.00507501
0.00524198
0.00518478
0.0052562
0.00546439
0.00613053
0.00852651
0.00745781
0.00628668
0.00619635
0.00686848
0.00692241
0.00663411
0.00665757
0.00662672
0.00667774
0.00783813
0.00836413
0.00844732
0.00847037
0.00832314
0.00815457
0.00789761
0.00768599
0.00758076
0.00747749
0.00690843
0.00701827
0.00695494
0.006829
0.00669636
0.00653141
0.00634241
0.00617913
0.00609721
0.00597842
0.00649542
0.00655486
0.00648923
0.00636622
0.00616967
0.00603747
0.00584884
0.00570118
0.00558907
0.00545846
0.00578825
0.00579125
0.00582006
0.00584746
0.00582433
0.00577037
0.00567525
0.00554741
0.00539466
0.00527843
0.00526149
0.00500963
0.00493612
0.0049394
0.00501164
0.00512811
0.00521627
0.005254
0.00511577
0.00502442
0.00510563
0.00475754
0.00434401
0.00416894
0.00411089
0.00411123
0.00424901
0.00447718
0.00449201
0.00448119
0.00573018
0.0050516
0.00442098
0.00397651
0.00372779
0.00364128
0.00366114
0.00377064
0.00385612
0.00409879
0.00709819
0.005801
0.00478351
0.00416836
0.00384041
0.00371384
0.00369466
0.0037176
0.00379489
0.00403541
0.00773777
0.00717325
0.00567881
0.00459393
0.00424847
0.00424632
0.00437505
0.00449405
0.00461036
0.00491891
0.00773424
0.00744136
0.00612703
0.00505592
0.00513888
0.0054944
0.00551719
0.00551551
0.00552802
0.00559617
0.00565796
0.00558368
0.00481114
0.00449462
0.00436421
0.00433453
0.00444156
0.00485918
0.00606294
0.00917735
0.00718376
0.00619883
0.00551451
0.00505504
0.00491558
0.00503952
0.00583654
0.00712202
0.00792054
0.00818696
0.007764
0.00750324
0.00696546
0.00655618
0.00644348
0.00674273
0.00708537
0.0072033
0.00712551
0.00593418
0.00778674
0.00774666
0.00756907
0.00730595
0.00712406
0.00706331
0.00697549
0.00660829
0.005588
0.00517393
0.00728162
0.00757163
0.00756439
0.00742521
0.00721131
0.00695926
0.00649551
0.00561473
0.00511395
0.00488198
0.00663642
0.00701533
0.00719752
0.00720297
0.00702691
0.00664929
0.00599067
0.00527206
0.00493224
0.00477663
0.00650097
0.00641
0.00663334
0.00670799
0.00663145
0.00619619
0.00545495
0.00479153
0.00457034
0.00450771
0.00710498
0.00619873
0.00605551
0.00612925
0.0061813
0.00602666
0.00548704
0.00477559
0.00440086
0.00431609
0.00773744
0.00652332
0.00596889
0.00564024
0.00558274
0.0055974
0.00549769
0.00500846
0.00457461
0.00452753
0.0076562
0.00715385
0.00594578
0.0054746
0.00554044
0.00568166
0.00566249
0.00553939
0.00508463
0.00478043
0.0088843
0.00881767
0.00870062
0.00851162
0.00838122
0.0087452
0.00795493
0.00615634
0.00510911
0.00453396
0.00832646
0.00820524
0.00818499
0.00807945
0.007976
0.00805293
0.00847001
0.0081872
0.00732325
0.00588377
0.0078972
0.00802776
0.00809656
0.00802166
0.00797539
0.00808529
0.00837433
0.00878759
0.00834006
0.00683122
0.00753664
0.00781591
0.00782416
0.00775201
0.00780558
0.00801055
0.00840235
0.00872549
0.00814905
0.00659194
0.00741873
0.00770831
0.00764318
0.00753704
0.00761004
0.00788922
0.00825865
0.00830279
0.00751267
0.00617859
0.00738146
0.00742661
0.00727188
0.00724698
0.00742852
0.00774824
0.00791649
0.00779629
0.00696291
0.00605455
0.00731169
0.00728878
0.00709898
0.00699579
0.007182
0.00747232
0.00760125
0.00745809
0.0068777
0.0060832
0.00720885
0.00715934
0.00694745
0.00672911
0.00679893
0.00704626
0.00732767
0.00734116
0.00686503
0.00616992
0.00692756
0.00702691
0.00684363
0.00657663
0.00647281
0.00658092
0.00685705
0.0070515
0.00664445
0.00610152
0.00660332
0.0068981
0.0067319
0.00649823
0.0063584
0.00630193
0.00648365
0.00678151
0.0065416
0.0058376
0.00935265
0.00878314
0.00885868
0.00883182
0.00866
0.00830436
0.00799355
0.00798559
0.00804919
0.00835721
0.00826142
0.00831765
0.0084969
0.00847099
0.00830286
0.00790408
0.00764567
0.0076019
0.00764579
0.00763976
0.00789974
0.00817819
0.00836098
0.00827161
0.00792782
0.00748483
0.00718458
0.0072052
0.00734519
0.00735271
0.00776201
0.00815509
0.00809575
0.00775586
0.00719443
0.00687685
0.00684106
0.00693455
0.00716017
0.00712651
0.00772874
0.00795021
0.00772904
0.00716305
0.00682805
0.00665595
0.0067342
0.00691617
0.00711317
0.0070572
0.00764139
0.00775335
0.00731755
0.0068058
0.00654969
0.00654115
0.00671305
0.00698446
0.00699117
0.0069696
0.00751819
0.00759194
0.00705163
0.0065948
0.00638858
0.00644503
0.00679296
0.00701204
0.00695201
0.00687801
0.00736833
0.00739999
0.00692827
0.00650093
0.00632118
0.00639014
0.00683213
0.00705154
0.00696468
0.00687073
0.0072443
0.007299
0.00689341
0.00649465
0.00633931
0.00640483
0.00681579
0.00711522
0.00713985
0.00703601
0.00718665
0.00724422
0.00689118
0.00667678
0.00664377
0.00683216
0.00706926
0.00713708
0.00693522
0.00633408
0.00817981
0.00812088
0.00777639
0.00731299
0.00706085
0.00675598
0.00655652
0.00665419
0.00723144
0.00753882
0.00800526
0.00793591
0.0075446
0.00693458
0.00646193
0.00614227
0.00598962
0.00607393
0.00645658
0.00658121
0.00770256
0.00751688
0.0069665
0.00623956
0.00566932
0.00531732
0.00529804
0.00541945
0.00577936
0.00600485
0.00756565
0.00731235
0.00668931
0.00584375
0.00525982
0.00501151
0.00502825
0.00514248
0.00547055
0.00581665
0.00733384
0.00691392
0.00631614
0.00555297
0.00510852
0.00494612
0.00497716
0.00509858
0.00539918
0.00584479
0.00718727
0.00673754
0.00617409
0.00547713
0.00508768
0.00497133
0.0050118
0.00514866
0.00547588
0.00589074
0.0070451
0.0065704
0.00612111
0.00550625
0.00528537
0.00523691
0.00522138
0.00529923
0.00556946
0.00604382
0.00699206
0.00650985
0.00613364
0.0058149
0.00571147
0.00571225
0.00568075
0.00563238
0.00566778
0.00611358
0.00698784
0.00649913
0.00625997
0.00609483
0.00610727
0.0062104
0.00621308
0.00617658
0.00618817
0.00635713
0.00708716
0.00655776
0.00634762
0.00627457
0.00636172
0.00643542
0.00637888
0.0062561
0.00607772
0.00566583
0.00683816
0.0061265
0.00579608
0.00549942
0.00534849
0.00521295
0.00516266
0.00537052
0.00602509
0.00694338
0.00686773
0.00612064
0.00566348
0.00528981
0.00503838
0.00486285
0.00480678
0.00488774
0.00524107
0.00531108
0.00658971
0.00579142
0.0053992
0.00510451
0.00488832
0.00470175
0.00459387
0.00461711
0.00477165
0.00488587
0.00647526
0.0056689
0.00529936
0.00505492
0.00485576
0.00466929
0.00454187
0.00451227
0.00456741
0.00474058
0.0062695
0.00549429
0.00521152
0.00504823
0.00490137
0.00472956
0.00456945
0.00449534
0.00454788
0.00478996
0.00617647
0.00542115
0.00518657
0.00512462
0.00505342
0.00492432
0.00472706
0.0045747
0.00461933
0.0049503
0.00609433
0.00537347
0.00518168
0.00524614
0.00526971
0.00520162
0.00499938
0.00477778
0.00475967
0.00511288
0.00606653
0.00536433
0.00522021
0.00539533
0.0054824
0.00544969
0.00526525
0.0050849
0.00497186
0.0051105
0.00611133
0.00541242
0.00527618
0.00548831
0.00560698
0.00554723
0.00536716
0.00528659
0.00536717
0.00534633
0.00622242
0.00547136
0.00534373
0.00556825
0.00566872
0.00555395
0.00527445
0.0051283
0.00494588
0.00468989
0.00775151
0.00781513
0.0076963
0.00727757
0.00692274
0.00668754
0.00663454
0.00652336
0.00609175
0.00501322
0.00745635
0.00758912
0.00766056
0.00719029
0.00672264
0.00645692
0.0061366
0.00595261
0.00552872
0.00512508
0.00722326
0.00731937
0.00754071
0.00715958
0.00665994
0.00627235
0.0058489
0.00553033
0.005147
0.00460993
0.00700867
0.00703842
0.00744989
0.00719952
0.00664819
0.00618059
0.0056135
0.00516721
0.00469243
0.00415821
0.00686835
0.00672355
0.00730462
0.00722089
0.00666584
0.00614409
0.00549334
0.00499289
0.00449578
0.00400893
0.00682867
0.00633633
0.00716412
0.00722163
0.00670869
0.00615819
0.00546755
0.00493383
0.00442805
0.00398498
0.00706238
0.00593641
0.00699418
0.00718895
0.0067273
0.00629645
0.00559485
0.00499361
0.00454927
0.00410756
0.00782363
0.00563084
0.00665915
0.00716423
0.00673563
0.00640717
0.00588265
0.00527186
0.0048431
0.00440205
0.00845187
0.00550405
0.00611759
0.00710051
0.0067388
0.00646354
0.00621298
0.00569096
0.00526937
0.00498386
0.00870727
0.00545431
0.00569231
0.00697181
0.00673246
0.00647984
0.00636645
0.00628851
0.0061825
0.0061391
0.00984305
0.00765224
0.00711359
0.00692318
0.00677666
0.00661322
0.0062583
0.00579827
0.0056941
0.0059879
0.00971465
0.00775998
0.00702717
0.00681224
0.00664519
0.00644056
0.00604728
0.00558709
0.00559486
0.00560029
0.00997959
0.00756998
0.00668674
0.00661598
0.00654471
0.00638054
0.00596715
0.00548606
0.00528757
0.00517176
0.0100719
0.00748578
0.00651343
0.00650935
0.00649517
0.00636836
0.00593092
0.00538153
0.00504351
0.00500976
0.0100341
0.00711359
0.00616959
0.00631052
0.00647969
0.00639055
0.00592028
0.00531198
0.00489404
0.00472334
0.00964597
0.00678228
0.00599547
0.00620008
0.00647864
0.00647089
0.0059613
0.00526042
0.00474599
0.00436885
0.00945067
0.00639411
0.00573506
0.0060567
0.00647849
0.00651625
0.00608409
0.0052421
0.00471627
0.00435537
0.00913867
0.00615816
0.00558133
0.00598683
0.00644872
0.00651449
0.00614673
0.00537529
0.00492694
0.00463558
0.00902402
0.00605341
0.00539781
0.00587113
0.00636581
0.00642305
0.0061357
0.00538852
0.00495534
0.00465065
0.00900921
0.00601828
0.00530226
0.00579817
0.00619342
0.00622699
0.00600805
0.00526369
0.00477152
0.00459265
0.00834697
0.00715238
0.00666464
0.00644221
0.00627184
0.0061576
0.00624132
0.00667736
0.00695265
0.00715987
0.00814347
0.00724467
0.00690535
0.00668012
0.00651782
0.0064453
0.00652375
0.00683882
0.00698992
0.00708282
0.00827635
0.00735749
0.0070617
0.00688655
0.00677088
0.00672863
0.00683683
0.00697029
0.00700801
0.00701265
0.008701
0.00753041
0.0072053
0.00706564
0.00699005
0.0069712
0.00699747
0.00697694
0.00691349
0.00650607
0.00925736
0.00770573
0.00730305
0.00717709
0.00710754
0.00707551
0.00701774
0.00691971
0.00663723
0.00629819
0.0096579
0.00793217
0.00736012
0.00721255
0.0071487
0.00709137
0.00699265
0.00677449
0.00641366
0.00625226
0.0100601
0.00821626
0.00741649
0.00720929
0.00714302
0.00707891
0.00694737
0.00661547
0.00631411
0.00619825
0.0100934
0.00882488
0.00759045
0.00724873
0.00714906
0.00708608
0.00695573
0.00661225
0.00629462
0.00605491
0.00973676
0.00924845
0.00800112
0.00737889
0.00719393
0.00710289
0.00698396
0.00663679
0.00628458
0.00607069
0.00897236
0.00909844
0.00832424
0.00752185
0.00728752
0.00716619
0.00706456
0.00674341
0.00629609
0.00637484
0.00477177
0.0048937
0.00429539
0.00401635
0.00373235
0.00362413
0.00374196
0.00402493
0.00435838
0.00484224
0.00492629
0.00491995
0.00427132
0.00400368
0.00378538
0.00372816
0.00385537
0.00419735
0.00452616
0.00507766
0.00524177
0.00493901
0.00432497
0.00406333
0.00392534
0.00390153
0.00407034
0.00438449
0.0049963
0.00537589
0.00557723
0.00498916
0.00445751
0.00423757
0.00412261
0.00408061
0.00428727
0.00484745
0.00526385
0.00521859
0.00576814
0.00506542
0.00464266
0.00447654
0.00438045
0.00438726
0.00473898
0.00517683
0.00527581
0.00486354
0.00591135
0.00512689
0.00475574
0.00465504
0.00465565
0.00473579
0.00510779
0.00536469
0.00525781
0.00445576
0.00598661
0.00525368
0.00496771
0.00490667
0.00491761
0.00506056
0.00541483
0.00549938
0.0052458
0.00442521
0.00611078
0.00543933
0.00514103
0.00508877
0.00511853
0.00537881
0.00560363
0.00560287
0.0052986
0.00447005
0.00644413
0.00591208
0.00549276
0.00536478
0.00532921
0.00550508
0.0058393
0.00580882
0.0054858
0.00453146
0.00654266
0.00609478
0.00578893
0.00560353
0.00555455
0.0056282
0.00585102
0.00599203
0.00567904
0.00470083
0.0020971
0.00204047
0.00203994
0.00230296
0.00301665
0.00302166
0.00327977
0.00319569
0.00191864
0.00175062
0.00229816
0.00232326
0.00238055
0.00252188
0.00301635
0.00311173
0.00333771
0.00336315
0.00224038
0.00175898
0.00280499
0.00244249
0.0024672
0.00288208
0.0030608
0.00308624
0.00330154
0.00329245
0.00235352
0.00175278
0.0026079
0.00260623
0.00281395
0.00296834
0.00299027
0.00304014
0.00325074
0.00320431
0.00257156
0.00198178
0.00258887
0.00300482
0.00299602
0.00297435
0.00298796
0.00298733
0.00293246
0.00280444
0.0025676
0.00217527
0.00257414
0.00286246
0.00285046
0.00285408
0.00278354
0.00273733
0.00259511
0.0024744
0.00240663
0.00210967
0.00253984
0.00273347
0.00268813
0.00267484
0.00261824
0.0025075
0.00250804
0.00242252
0.00215687
0.0022208
0.00242396
0.0027916
0.00274998
0.00276577
0.00276955
0.00265711
0.00258644
0.00224298
0.00212755
0.00214299
0.00231867
0.00268912
0.00263809
0.00267681
0.00276778
0.00273128
0.00258014
0.00222904
0.00209859
0.00208249
0.00229513
0.00242843
0.00245421
0.00256429
0.00264769
0.00261203
0.00244657
0.00215878
0.00207638
0.00207983
0.00155283
0.0016097
0.00161713
0.00159617
0.00150087
0.00131788
0.00118095
0.00112624
0.00110491
0.00109577
0.00158109
0.00160806
0.00160358
0.00153223
0.00137628
0.00120925
0.00114545
0.00112536
0.00112004
0.00109038
0.00159385
0.00160372
0.00158354
0.00146858
0.00129739
0.00117155
0.00113334
0.00111972
0.00109225
0.0010884
0.00159205
0.00159262
0.00154268
0.00141926
0.00126148
0.00116372
0.00112972
0.00109856
0.00108944
0.00109401
0.001588
0.00158265
0.00151924
0.00139845
0.00126759
0.00117258
0.00114064
0.00110691
0.0011125
0.00113379
0.00157838
0.00156243
0.00148874
0.00139252
0.00128977
0.00120898
0.00115729
0.00116082
0.00116385
0.00115527
0.00156192
0.00153925
0.00146442
0.00138359
0.00132756
0.00128767
0.00124287
0.00122288
0.0011826
0.00114634
0.00154866
0.00150633
0.0013976
0.00117337
0.00120201
0.00123433
0.00122843
0.0012126
0.00112786
0.00111088
0.00152279
0.0013416
0.0011204
0.00107137
0.00106519
0.00110681
0.00111579
0.00112127
0.00108738
0.00107033
0.00148009
0.00128266
0.0010888
0.00108288
0.00107343
0.00110029
0.00109695
0.00105077
0.000956462
0.000911004
0.00206788
0.0020838
0.00208815
0.00207318
0.00202877
0.00192202
0.00177124
0.00159579
0.00143168
0.00135611
0.0020412
0.00203381
0.00200623
0.00194306
0.00182824
0.00166518
0.0014775
0.00132781
0.00120348
0.00114008
0.00195126
0.00189721
0.00181378
0.0016761
0.00152805
0.00135407
0.0012209
0.00110701
0.00105221
0.00102995
0.00174907
0.00168634
0.00152642
0.00140143
0.00124901
0.00111587
0.00102429
0.000980433
0.000965722
0.000988751
0.00149151
0.00140265
0.00124315
0.00115575
0.00101971
0.000954389
0.000902833
0.000888452
0.000888481
0.000929354
0.00130426
0.00119443
0.00107046
0.0010101
0.000914055
0.000873544
0.000825251
0.000817743
0.000828403
0.000875376
0.00109584
0.000984754
0.000902126
0.000829428
0.000792358
0.000783288
0.000778264
0.00077289
0.000799382
0.000851367
0.000926195
0.00087303
0.000803312
0.000773036
0.00076162
0.000742793
0.000749427
0.000748745
0.00077225
0.000795306
0.000886581
0.000824752
0.0007983
0.000791991
0.000779157
0.000737621
0.000745121
0.000740746
0.000763635
0.000768114
0.000906288
0.000833134
0.000799125
0.000807188
0.000797725
0.000735138
0.000725478
0.000739099
0.000745498
0.000659209
0.000936982
0.000833825
0.000827913
0.000828584
0.000836245
0.000868105
0.000905281
0.000934737
0.000975036
0.00104913
0.000939937
0.000821019
0.0008111
0.000813612
0.000828221
0.000864145
0.00089191
0.000917897
0.000968975
0.0010616
0.000988096
0.000834275
0.000802514
0.000803171
0.000816885
0.000843934
0.00086705
0.000890496
0.000949644
0.00105512
0.00114929
0.000915201
0.000827912
0.000799079
0.000794465
0.000805468
0.000820551
0.000856274
0.000903628
0.000952609
0.00146124
0.00116325
0.000966986
0.000861073
0.000817161
0.00079021
0.000779273
0.00081522
0.000839892
0.000837701
0.00163803
0.00143829
0.00122467
0.00103255
0.000892662
0.000804736
0.000756561
0.000758074
0.000761621
0.00072937
0.00168687
0.0015555
0.00142071
0.00121352
0.00100952
0.000855256
0.000751527
0.000697664
0.00067888
0.000646079
0.00166442
0.00156287
0.0014716
0.00133394
0.00112902
0.000928509
0.000777008
0.000675489
0.000631494
0.00061032
0.0015803
0.00153431
0.00146148
0.00137622
0.00120973
0.00101598
0.000828257
0.00068421
0.000619712
0.000597899
0.00136732
0.00139425
0.00138392
0.00134411
0.00125521
0.00107477
0.000887345
0.000715957
0.000622864
0.000594131
0.00343944
0.00351584
0.00368063
0.00401471
0.00424491
0.00448665
0.00496399
0.00603581
0.00611811
0.0056906
0.00350541
0.00352021
0.00358245
0.00375175
0.00404845
0.00430545
0.00467873
0.00541682
0.00579326
0.00546436
0.00393597
0.00368062
0.00362563
0.00369295
0.00384711
0.00405992
0.00440196
0.00495131
0.00557617
0.00535987
0.0045776
0.00412585
0.0038599
0.00378038
0.00384622
0.00400144
0.00430489
0.00480876
0.00553584
0.00539266
0.00514116
0.00466334
0.00426591
0.00405358
0.00401795
0.00414144
0.00445651
0.00494408
0.0055542
0.00546219
0.00649897
0.00580344
0.00518758
0.00476362
0.00463753
0.00479169
0.00508541
0.00548642
0.00571434
0.00564286
0.00833193
0.00735888
0.00666575
0.00622691
0.00601682
0.00607922
0.00612012
0.00605806
0.00598645
0.00583482
0.00774408
0.00720638
0.00689913
0.00664771
0.00650033
0.00634258
0.00619655
0.00610132
0.00596931
0.00578453
0.00618094
0.00617818
0.00624771
0.00621936
0.00622282
0.00611956
0.0060006
0.00590436
0.00575836
0.00555414
0.00499789
0.00535591
0.00565659
0.00573477
0.00571686
0.00564383
0.00556816
0.00545755
0.00528926
0.0050132
0.00293414
0.00302129
0.00310441
0.00329103
0.00350992
0.00366158
0.00382539
0.00412451
0.00474641
0.00522845
0.00297754
0.00301144
0.00307705
0.00320552
0.00338467
0.00353764
0.00372876
0.00401377
0.00454804
0.00503981
0.00326416
0.00313272
0.00312981
0.00318928
0.0033239
0.00345919
0.00362716
0.00384044
0.0042557
0.00471654
0.00363697
0.00344712
0.00330125
0.00328831
0.00334899
0.0034626
0.00359894
0.00378073
0.00411005
0.00454185
0.00393265
0.00378822
0.00359124
0.00349411
0.00349103
0.0035305
0.00363508
0.00381189
0.00413236
0.00449703
0.00460596
0.00445832
0.00419783
0.00398922
0.00385433
0.00381806
0.00386334
0.00400463
0.004284
0.00458047
0.00626689
0.00598464
0.00550725
0.00508733
0.00475855
0.00458412
0.0045511
0.00461684
0.0047544
0.00489881
0.0068455
0.0065744
0.00614686
0.00581563
0.00558197
0.00535409
0.00524255
0.00520605
0.005175
0.00508867
0.00603012
0.00600909
0.0059537
0.00583117
0.00569814
0.00554351
0.00539405
0.0052942
0.00517636
0.00507657
0.00464181
0.00490227
0.00524252
0.00536089
0.00536607
0.00530455
0.00519981
0.00511011
0.00496785
0.00488258
0.00269667
0.00275931
0.00284677
0.00296093
0.00310563
0.00325852
0.00337005
0.00351117
0.00369306
0.00408528
0.00270875
0.00273256
0.0028037
0.00291059
0.00303085
0.0031566
0.00325077
0.00339861
0.00362365
0.00396212
0.00285319
0.00282209
0.00284551
0.00291123
0.00301847
0.00313814
0.00324841
0.00335192
0.00357437
0.00376201
0.00314997
0.00306322
0.0029918
0.00299837
0.00305587
0.00315105
0.00326617
0.00336059
0.00353625
0.00369402
0.0032934
0.00326211
0.00320664
0.00317385
0.00318087
0.0032323
0.00333408
0.00340184
0.00354077
0.00369874
0.00362362
0.0036556
0.00362725
0.00356697
0.00350636
0.00349534
0.00352862
0.00355475
0.0036269
0.00375059
0.00467842
0.00472825
0.00463756
0.00446914
0.00427112
0.00410679
0.00400983
0.00394856
0.00393852
0.0039717
0.00531162
0.00529271
0.0051918
0.00500864
0.00481771
0.00464535
0.0044899
0.00437624
0.00433187
0.00431052
0.00521756
0.00521755