/*--------------------------------*- C++ -*----------------------------------*\
  =========                 |
  \\      /  F ield         | OpenFOAM: The Open Source CFD Toolbox
   \\    /   O peration     | Website:  https://openfoam.org
    \\  /    A nd           | Version:  9
     \\/     M anipulation  |
\*---------------------------------------------------------------------------*/
FoamFile
{
    format      ascii;
    class       volScalarField;
    location    "80";
    object      f18.gas;
}
// * * * * * * * * * * * * * * * * * * * * * * * * * * * * * * * * * * * * * //

dimensions      [0 0 0 0 0 0 0];

internalField   nonuniform List<scalar> 
137980
(
0.00151107
0.00152533
0.00163679
0.00184682
0.00207051
0.00221874
0.00228335
0.00232052
0.00248052
0.0030481
0.00148745
0.00149536
0.00163029
0.00187385
0.00214066
0.00232893
0.00239974
0.00242487
0.00259576
0.00289346
0.00146043
0.00146552
0.00159611
0.00185491
0.00215279
0.00240142
0.00253234
0.00256581
0.00263044
0.00280204
0.00142005
0.00142802
0.00154825
0.00179181
0.00210994
0.00239534
0.00262232
0.0027062
0.00272103
0.00281252
0.0013812
0.00138924
0.00148166
0.00168899
0.00199774
0.00231082
0.00260196
0.00278823
0.0028593
0.00287331
0.00135423
0.0013539
0.00141088
0.00156349
0.00181118
0.00212013
0.00246388
0.0027401
0.00287009
0.00291932
0.00135919
0.0013449
0.00136052
0.00144643
0.00162065
0.00184644
0.00212206
0.00246334
0.00272169
0.00283713
0.0014404
0.00136093
0.00134853
0.00137576
0.00147536
0.00163334
0.00180728
0.00200203
0.00220715
0.00236732
0.00155997
0.00145202
0.00136191
0.00135512
0.0013896
0.00150111
0.00164379
0.00180542
0.00197533
0.00207446
0.00166191
0.00153199
0.00141017
0.0013617
0.00134828
0.00139445
0.00150114
0.0016746
0.00180983
0.00206474
0.00154193
0.00156756
0.00169467
0.00191706
0.00214594
0.00235456
0.00251134
0.0025238
0.00234443
0.00327119
0.00151757
0.00154771
0.00170985
0.00195734
0.00223393
0.00250958
0.00268651
0.00271208
0.00255221
0.00333181
0.00148579
0.00152039
0.00169186
0.00196842
0.00227249
0.00262942
0.00291338
0.00298419
0.00287871
0.00347884
0.00144033
0.00147615
0.00163722
0.00191246
0.00225842
0.00266566
0.00310483
0.00326013
0.00319207
0.00356681
0.00139699
0.0014221
0.00155355
0.00180408
0.00215647
0.00259218
0.00309213
0.00344243
0.00349126
0.0035828
0.00137571
0.00138188
0.00145558
0.0016509
0.00196251
0.00240304
0.00294775
0.00342647
0.0036001
0.00364718
0.00140445
0.00137516
0.00138945
0.00149657
0.00173315
0.00207439
0.00256733
0.00320233
0.00354412
0.0036435
0.00157768
0.00141922
0.00138638
0.00140534
0.00154103
0.00177416
0.00208283
0.00253039
0.00309576
0.00346767
0.00185942
0.00159823
0.0014362
0.00139288
0.00142595
0.00158566
0.00180166
0.00207316
0.00240043
0.00269349
0.00189686
0.0017202
0.00153265
0.00141557
0.00138364
0.00144437
0.00159364
0.0018365
0.00209606
0.00219158
0.00154763
0.00158364
0.00172467
0.00196278
0.00226021
0.00268369
0.00303989
0.00252889
0.00228539
0.00344719
0.00152557
0.00157526
0.00175886
0.00205066
0.00243743
0.00296852
0.00322747
0.00267473
0.00242133
0.00344389
0.00149552
0.00155689
0.00176198
0.00209021
0.00255725
0.00326546
0.00354287
0.00294022
0.0025738
0.00346213
0.00145034
0.0015167
0.00171855
0.00206882
0.00259956
0.00344694
0.00382573
0.00332804
0.00286751
0.00350874
0.00141838
0.00145982
0.00163136
0.00196613
0.00252922
0.0034906
0.00403288
0.00370669
0.00328845
0.00358963
0.00141641
0.00142159
0.00151721
0.00179197
0.00231257
0.00329773
0.00415927
0.00414948
0.00356917
0.0037397
0.00152961
0.00143517
0.00144402
0.0016009
0.00200291
0.00280154
0.00407193
0.00444504
0.00409678
0.00386116
0.00194375
0.00155371
0.00144488
0.0014766
0.00171484
0.00224875
0.00342311
0.0042909
0.00436958
0.00416175
0.00244386
0.00194789
0.0015869
0.00145441
0.00153274
0.00187287
0.00251841
0.00369643
0.0041638
0.00418966
0.00237153
0.00209597
0.00183909
0.00148811
0.00145831
0.00162972
0.00205387
0.00268357
0.00315826
0.00304577
0.00155705
0.00161885
0.00179916
0.00209961
0.00266571
0.00369864
0.00334417
0.00264456
0.00250749
0.00491391
0.00154402
0.00164115
0.00190304
0.0023667
0.00337704
0.00394524
0.00325259
0.00271661
0.00269269
0.00518857
0.00152241
0.00164694
0.00195204
0.00255102
0.00376522
0.00419471
0.00340968
0.00287955
0.0028467
0.00532621
0.00148912
0.00162263
0.00195013
0.00261916
0.00398877
0.00449854
0.00377342
0.00308354
0.00294095
0.00528517
0.00147248
0.00156675
0.00186427
0.00253608
0.00403939
0.00477289
0.00424549
0.00332387
0.00304208
0.00510801
0.00148478
0.00152338
0.00171804
0.00230618
0.00381035
0.00492369
0.00474367
0.00364762
0.00324454
0.00463721
0.0016076
0.00152817
0.00160178
0.0019961
0.00321269
0.0049016
0.00516642
0.00403324
0.00357814
0.00427383
0.00206064
0.00163986
0.00157321
0.00175001
0.0025846
0.00459072
0.00522774
0.00479193
0.00407358
0.00435693
0.00257182
0.00202094
0.00167108
0.00163366
0.00209028
0.0037102
0.00499938
0.00506693
0.00464286
0.00461656
0.00257482
0.00223241
0.00188924
0.00162453
0.00180979
0.0028909
0.00439888
0.00477906
0.00460071
0.00420234
0.00162715
0.00180233
0.00227824
0.00320496
0.00381823
0.00358119
0.00279771
0.00251259
0.00440089
0.00767317
0.00168791
0.00204791
0.00309641
0.00396238
0.00408911
0.00336891
0.00292421
0.00297417
0.00577845
0.00773523
0.00172108
0.00221208
0.00352911
0.00421793
0.00422137
0.00348185
0.00320439
0.00371147
0.00660673
0.00740902
0.00173362
0.00227016
0.00370524
0.00445987
0.00446039
0.00382227
0.00366217
0.00463068
0.00690169
0.00711371
0.00173296
0.00220638
0.00356029
0.00465226
0.00477939
0.00421932
0.00404152
0.0048912
0.00694632
0.00732346
0.00171911
0.00205021
0.00313487
0.00466888
0.00505107
0.00459411
0.00441154
0.00479557
0.00686033
0.00755322
0.00177424
0.00189072
0.00260753
0.00446266
0.00517078
0.00507333
0.00470195
0.00471367
0.00653268
0.00748063
0.00201201
0.00187836
0.00220862
0.00363275
0.0051232
0.00548586
0.00499148
0.00480692
0.00577431
0.00706838
0.00239385
0.00204797
0.00202474
0.0027695
0.00480267
0.00556641
0.00563026
0.00518352
0.00577341
0.00660234
0.00252257
0.00219782
0.00205548
0.00230764
0.00401376
0.00542674
0.00578567
0.00578012
0.00590696
0.00642761
0.00256776
0.00264081
0.00264048
0.00287056
0.00324335
0.00275187
0.00257613
0.00376609
0.00774373
0.00802801
0.00338021
0.00363826
0.00374493
0.00368144
0.00327591
0.00300482
0.00350596
0.00639496
0.00737585
0.00595585
0.00379136
0.00405837
0.00411714
0.00380591
0.00356651
0.00368539
0.00552782
0.00632725
0.00594078
0.00373771
0.0040531
0.00440197
0.00445853
0.00424836
0.00422346
0.00494439
0.00583719
0.00595665
0.00415378
0.00341051
0.00419898
0.00469626
0.00483505
0.00480853
0.00495657
0.00554418
0.00576439
0.0051509
0.00370593
0.00344034
0.00409658
0.00488276
0.00523008
0.00530451
0.00545336
0.0055888
0.00556825
0.00453395
0.00376688
0.00372694
0.00369674
0.00481677
0.00545818
0.00568947
0.00570821
0.00568818
0.00545145
0.00445698
0.00399577
0.00479504
0.00317645
0.0045613
0.00541362
0.00592658
0.00597712
0.00590243
0.00549903
0.00456398
0.0043091
0.00622022
0.00300748
0.00389429
0.00520802
0.00592392
0.00618267
0.00608725
0.00568462
0.00486422
0.00460545
0.00596722
0.00283161
0.00328189
0.00470534
0.00579003
0.00638484
0.00652721
0.00615928
0.00554785
0.00530942
0.00600541
0.00242519
0.00265668
0.00260571
0.00272173
0.00290039
0.00392635
0.00636918
0.00695876
0.00623965
0.00583751
0.00336518
0.00325627
0.00319987
0.00326402
0.00419684
0.00572095
0.00615643
0.005724
0.00414496
0.00365972
0.00382431
0.00373933
0.00375646
0.00427074
0.005329
0.00563525
0.00552115
0.00389741
0.00328872
0.00308258
0.00437931
0.00433537
0.00452494
0.0052034
0.00546259
0.00545253
0.00436791
0.00328393
0.00307132
0.00305007
0.00500659
0.00500836
0.0053437
0.00550905
0.00551583
0.00500859
0.00360416
0.00317004
0.00310629
0.00336931
0.00555755
0.00565331
0.00573404
0.00571327
0.00541404
0.00441308
0.00345292
0.00327658
0.0036427
0.00522454
0.00591571
0.00600923
0.00601013
0.00584394
0.00534782
0.00411231
0.00357796
0.00364528
0.00515639
0.0073149
0.00605154
0.00624364
0.00623102
0.00600685
0.00543276
0.00421599
0.00383357
0.00407171
0.00585857
0.0078502
0.00596875
0.0063791
0.00642218
0.00620468
0.00569992
0.00449275
0.00409893
0.00420567
0.00553405
0.00743676
0.00585656
0.00641497
0.00659664
0.00649053
0.00613137
0.0051297
0.00464237
0.00454181
0.00526575
0.00679032
0.00519996
0.00528338
0.00507536
0.00489809
0.00469212
0.00437973
0.00412831
0.00400129
0.00395534
0.00403451
0.00468441
0.00461758
0.00428969
0.004156
0.00385851
0.00357216
0.00334212
0.00323943
0.00320324
0.00321342
0.00447532
0.00428416
0.00404302
0.00383951
0.003522
0.00328027
0.00317442
0.00313048
0.00316384
0.00327062
0.00457326
0.00431587
0.00408296
0.00371452
0.00340523
0.00327877
0.00324225
0.00341797
0.00378564
0.00406652
0.00486181
0.00449401
0.00423135
0.00373296
0.00348344
0.00343909
0.00380489
0.00479737
0.00553266
0.00583084
0.00530014
0.00485948
0.00442274
0.00389021
0.00372868
0.0037997
0.00445936
0.00556379
0.00642204
0.00682035
0.00577314
0.00539622
0.00477886
0.00416876
0.00391642
0.00385942
0.00427272
0.00535489
0.00665256
0.00709123
0.00623342
0.00589211
0.00521329
0.00452586
0.00407334
0.00386281
0.00383289
0.00437518
0.00588069
0.00710589
0.00658738
0.00633095
0.00586417
0.00501096
0.00441018
0.00395678
0.00379971
0.00390949
0.0044902
0.00642645
0.00696367
0.00671125
0.00629756
0.00569304
0.00538532
0.00466551
0.00410932
0.00415034
0.00447855
0.00584743
0.00433323
0.0043537
0.00406062
0.0039549
0.00383686
0.00379355
0.00378006
0.00381279
0.00387712
0.00401135
0.00415107
0.00404423
0.00379746
0.00371149
0.00366561
0.00366279
0.00372484
0.00376134
0.00377312
0.00377268
0.00391301
0.00374401
0.00359843
0.00356873
0.00364543
0.00389408
0.00419082
0.00436958
0.00452233
0.0046234
0.00389122
0.00352426
0.0033976
0.00339393
0.00359595
0.00398545
0.00446721
0.00493172
0.00516904
0.0052739
0.00409789
0.00346271
0.00323176
0.00318101
0.00329261
0.0036512
0.00437088
0.0051366
0.00547205
0.00555822
0.00466033
0.00363788
0.00324364
0.00302251
0.00296962
0.00313654
0.00380925
0.00497669
0.00557267
0.00564092
0.00560141
0.00424554
0.00345996
0.00311705
0.0029265
0.00286808
0.00319772
0.00379034
0.00496756
0.00537296
0.00643095
0.00503045
0.00398845
0.00351256
0.00333112
0.00311551
0.00315244
0.003382
0.00405279
0.00498591
0.00704889
0.00601473
0.00514299
0.00453131
0.00445636
0.00418299
0.00378061
0.00373729
0.00385031
0.00473446
0.00714321
0.00644948
0.00584093
0.00573057
0.0061146
0.00544107
0.00486464
0.00482124
0.00495399
0.00527075
0.00465746
0.00474664
0.00466614
0.00462917
0.00455881
0.00453157
0.00452409
0.0045858
0.00469074
0.004834
0.00413495
0.00418835
0.00416008
0.00415257
0.0041433
0.00415444
0.00417102
0.00419776
0.00423891
0.0043057
0.00384331
0.00378794
0.00376865
0.00380796
0.00390991
0.00405093
0.0041819
0.00431025
0.00441406
0.00451159
0.00349917
0.00329976
0.00323916
0.00325617
0.00343106
0.00375973
0.0041313
0.00446673
0.00467562
0.00476488
0.00361693
0.0030835
0.00283242
0.00275808
0.00277739
0.00304846
0.00354631
0.00421814
0.00466606
0.00480314
0.00401563
0.00334102
0.00283326
0.00252113
0.00244022
0.00247333
0.00270716
0.00322444
0.00404754
0.00471177
0.00525692
0.00405496
0.00311842
0.00267181
0.0024378
0.00241191
0.00251544
0.00284395
0.00347428
0.00448917
0.00619702
0.00501281
0.00370954
0.00304186
0.00278041
0.0027956
0.00286559
0.00303547
0.00338039
0.00431941
0.00663206
0.00583444
0.00461851
0.00364646
0.00374864
0.00387441
0.00382439
0.00388063
0.00404809
0.00458362
0.00664663
0.0057623
0.00478106
0.00469906
0.00525571
0.00529911
0.00506546
0.00508634
0.00503945
0.00504273
0.00581504
0.0062845
0.00637667
0.00640609
0.00631533
0.0062055
0.00600993
0.00586988
0.00580048
0.00573896
0.00503341
0.00512769
0.00509932
0.00501912
0.0049439
0.00484317
0.00471006
0.00460436
0.00455161
0.00447466
0.00469899
0.00474698
0.00470051
0.0046171
0.00448224
0.00439975
0.00427716
0.00417675
0.00410742
0.00401482
0.00415561
0.00416348
0.00419689
0.00422785
0.00423195
0.00420297
0.00413849
0.00402645
0.00392953
0.00383866
0.00373988
0.00354734
0.00349814
0.00352521
0.00361233
0.00373103
0.00380452
0.00382655
0.00371011
0.0036313
0.00362536
0.00335151
0.00302473
0.00289606
0.00286209
0.00289159
0.00303356
0.00323644
0.00322511
0.00318592
0.00417061
0.00360295
0.00310344
0.00275298
0.00255749
0.0024981
0.00252382
0.0026193
0.00268883
0.00287814
0.00543187
0.00427328
0.00340993
0.0029133
0.00265411
0.0025568
0.00254593
0.0025661
0.00263082
0.00282616
0.00602711
0.00550922
0.00418766
0.0032785
0.00299939
0.00300932
0.00312871
0.00323178
0.00332616
0.00356333
0.00603581
0.00577181
0.00458643
0.00366843
0.00373986
0.00408172
0.00412156
0.00413079
0.00414466
0.00417294
0.00400919
0.00393091
0.00336892
0.00314317
0.0030531
0.00303254
0.00310164
0.003413
0.00434538
0.00710746
0.00518493
0.00440405
0.00387757
0.00353909
0.00343913
0.00354074
0.00414908
0.00529597
0.00607754
0.00634933
0.00565353
0.00545394
0.00503322
0.00471515
0.00463607
0.00494208
0.00529844
0.00543028
0.00543348
0.0044552
0.00568181
0.00565495
0.00553752
0.0053421
0.00524793
0.00522843
0.00521255
0.00496279
0.00413689
0.00379362
0.00527497
0.00552527
0.00553261
0.00545133
0.00530517
0.00513835
0.00480075
0.00413683
0.0037196
0.00352985
0.00477487
0.00503432
0.00524071
0.00526021
0.00515015
0.00488411
0.00440037
0.00384661
0.00356299
0.00343022
0.00467384
0.0045646
0.00476208
0.00485329
0.00480901
0.00448355
0.00391769
0.00343327
0.00325928
0.00319698
0.00530611
0.00445683
0.00426997
0.00436626
0.00444058
0.00434191
0.00392597
0.0033891
0.00310557
0.00303528
0.00597302
0.00475554
0.00428652
0.00395634
0.00393582
0.00397736
0.00391639
0.00357183
0.00324594
0.00319911
0.00596173
0.00536818
0.00428194
0.00389827
0.00394629
0.00408204
0.0040847
0.00399577
0.00365911
0.00340599
0.00660562
0.00656897
0.0065139
0.00641719
0.00635207
0.00665539
0.00592943
0.00434026
0.00352872
0.00312141
0.00621279
0.00613087
0.00615107
0.00610396
0.00605322
0.00612055
0.00644537
0.00614207
0.00528964
0.0040941
0.00590166
0.00600637
0.00610282
0.00606654
0.00606082
0.00616504
0.00640825
0.00672551
0.00626894
0.00490196
0.00563634
0.00585773
0.00591149
0.00588797
0.0059501
0.00613332
0.00644339
0.00669217
0.00613522
0.00472437
0.0055512
0.00578819
0.00574979
0.00569218
0.00576585
0.0060111
0.00633357
0.00637343
0.00563105
0.0044241
0.00552745
0.00555031
0.00544684
0.0054415
0.00560419
0.00589242
0.00605161
0.00593255
0.0051593
0.00433406
0.00547051
0.00543548
0.00530165
0.00523376
0.00539787
0.00565771
0.00578535
0.00565211
0.00511605
0.0043652
0.00540986
0.00531473
0.00515828
0.00499872
0.00507023
0.00528931
0.00555352
0.00556127
0.00512889
0.00448129
0.00523056
0.00526161
0.00505856
0.00486064
0.00478922
0.0049023
0.00516571
0.00531824
0.00495526
0.00443774
0.00499788
0.00520918
0.00502263
0.00477415
0.00462775
0.00457827
0.00476919
0.00507573
0.00488726
0.00420316
0.00698498
0.0065647
0.00666589
0.00669593
0.00661278
0.0064022
0.00617004
0.00615436
0.00620156
0.00642282
0.00619932
0.00625237
0.00643843
0.00645462
0.00636868
0.00610953
0.00591545
0.00585477
0.00588005
0.00587133
0.00594557
0.00616867
0.00636089
0.00631848
0.00610371
0.00576231
0.00553478
0.00555348
0.00566109
0.00565382
0.00584609
0.0061713
0.00614578
0.00593612
0.00550509
0.00527561
0.00525499
0.00533011
0.00550127
0.00544937
0.005817
0.0060241
0.00587799
0.00545288
0.00520356
0.00509161
0.0051605
0.00531274
0.00544363
0.0053715
0.00575998
0.00587312
0.00555455
0.00514733
0.00497437
0.00498404
0.00513647
0.00535291
0.00531741
0.00528014
0.00566716
0.00574963
0.00533887
0.0049733
0.00482738
0.00489022
0.0051936
0.0053606
0.00527722
0.00519038
0.00556749
0.00560757
0.00524312
0.00489475
0.00476212
0.00483382
0.0052131
0.00538479
0.00528476
0.00518279
0.00548645
0.00554042
0.0052195
0.0048905
0.00476221
0.00483499
0.00519207
0.00542398
0.0054234
0.00528688
0.00545061
0.00550939
0.0052307
0.00505588
0.00502773
0.00518176
0.00536385
0.00540865
0.00519144
0.00463193
0.00611593
0.00608578
0.00588192
0.00555994
0.00539834
0.00519285
0.00505669
0.00513977
0.00564475
0.00589246
0.00596804
0.00593191
0.0056933
0.00526524
0.00492064
0.00469687
0.00459386
0.00467288
0.00499573
0.00509726
0.00575061
0.00562267
0.0052588
0.00472713
0.00429837
0.00402062
0.0040038
0.00410659
0.00441216
0.00459816
0.00564994
0.00547055
0.00505027
0.00442864
0.00397722
0.0037694
0.00378317
0.00387715
0.00414958
0.00443605
0.00547652
0.00518249
0.00477226
0.00420241
0.00385443
0.00371784
0.00374371
0.00384291
0.00410052
0.00445008
0.00536721
0.00506077
0.00466693
0.00414257
0.00383338
0.00373801
0.00377329
0.00388615
0.0041574
0.00447746
0.0052775
0.00494444
0.00462859
0.00416516
0.00398872
0.00395366
0.0039475
0.00401707
0.00422892
0.00459438
0.00524569
0.00490503
0.00463929
0.00441052
0.00432829
0.00433115
0.00432674
0.00429239
0.00430142
0.00464127
0.00525653
0.00490073
0.00473644
0.00461766
0.0046175
0.00467764
0.00467795
0.00469538
0.00472029
0.00482575
0.00535717
0.00495044
0.00479782
0.0047456
0.00478474
0.00482201
0.00474643
0.00465418
0.00453313
0.00413527
0.00488783
0.00436541
0.004149
0.00396529
0.00388462
0.00381472
0.00380524
0.00399221
0.00458346
0.00535691
0.00493677
0.00435458
0.0040474
0.00381416
0.00366422
0.00354985
0.00352215
0.00359341
0.00390933
0.00398119
0.00475901
0.00413271
0.00387123
0.00370464
0.00356681
0.00343629
0.00336373
0.00338449
0.00351994
0.00362941
0.0046871
0.00405287
0.00380774
0.00367935
0.00354928
0.00341666
0.00332613
0.00331191
0.0033694
0.00352906
0.00456108
0.00395425
0.00376372
0.00368406
0.00359906
0.00347441
0.0033523
0.00330619
0.0033675
0.00357808
0.00450631
0.00391662
0.00375466
0.00376137
0.00372111
0.00362795
0.00347719
0.00337659
0.00343161
0.00370941
0.00447262
0.00390023
0.0037647
0.00385404
0.00388183
0.00383504
0.00368237
0.00353455
0.00354181
0.00383784
0.00446411
0.00391468
0.0038183
0.00397233
0.00403859
0.00399481
0.00385049
0.00374044
0.00368778
0.00382014
0.00454861
0.00397822
0.00386678
0.00404077
0.0041249
0.00404886
0.00390477
0.00386657
0.00394861
0.00393337
0.00464702
0.00403679
0.00393882
0.00410432
0.0041628
0.00402883
0.00378947
0.00368385
0.00354991
0.00335676
0.00556842
0.00565999
0.0056486
0.005358
0.00508773
0.00491817
0.00488302
0.00479671
0.00444977
0.00358593
0.00529016
0.00541573
0.00556903
0.00527585
0.00492241
0.00471936
0.00446284
0.00431265
0.00396103
0.00363462
0.00515833
0.00523245
0.00548303
0.00524942
0.00486876
0.00457353
0.00423176
0.00397657
0.00366983
0.00323406
0.00500548
0.00499954
0.00539749
0.00526285
0.00485639
0.00450062
0.00404873
0.00369928
0.00331728
0.00292234
0.00494262
0.00477653
0.00529046
0.00527039
0.00486952
0.00447356
0.00396583
0.00357116
0.00317179
0.00283377
0.00493811
0.00447798
0.00518669
0.00526428
0.00490296
0.00450046
0.00395255
0.00353125
0.00312662
0.00282544
0.00525083
0.00420571
0.00504609
0.00523231
0.00491733
0.00462771
0.00409113
0.00360937
0.00324654
0.00291859
0.00595778
0.00402246
0.00477579
0.00521435
0.00492362
0.00472108
0.0043465
0.00386457
0.00350642
0.00314276
0.00652624
0.00395801
0.00435599
0.00516709
0.00492533
0.00477216
0.00462754
0.00426032
0.00392047
0.00367891
0.00676732
0.00394122
0.00406357
0.00507471
0.00490522
0.00478692
0.00475493
0.00475134
0.00469983
0.00466103
0.00761353
0.00559565
0.00512414
0.00499448
0.00491097
0.0048019
0.00454789
0.00419036
0.00412124
0.00439924
0.00751468
0.00570055
0.00504946
0.00489642
0.00479549
0.00466695
0.00438397
0.00402054
0.0040504
0.00406315
0.00779595
0.00556512
0.00477214
0.00473563
0.00471625
0.00462207
0.00432285
0.00394086
0.00379652
0.0037387
0.00789457
0.00550611
0.00463325
0.00464826
0.00467814
0.00461327
0.00429563
0.0038601
0.00360358
0.00361493
0.00789698
0.00520402
0.00437221
0.00449229
0.00466766
0.0046323
0.00428822
0.00380278
0.00347716
0.00338262
0.00756587
0.00493877
0.00424807
0.00441133
0.00466704
0.00469912
0.00432375
0.00376992
0.00335454
0.00308458
0.00740398
0.00461907
0.00405098
0.0043091
0.00466786
0.00473093
0.00442651
0.00376116
0.00333077
0.00307075
0.00714652
0.00445649
0.00394734
0.00426102
0.00464837
0.00472788
0.00447599
0.00388221
0.003511
0.00328077
0.00705659
0.00439088
0.00382189
0.0041844
0.00458968
0.00465379
0.00446539
0.00389367
0.003545
0.00331056
0.00705327
0.00437846
0.00376343
0.00413931
0.00446293
0.00450144
0.0043618
0.00380125
0.00343691
0.00331376
0.00641866
0.00536444
0.0049718
0.0047924
0.00464912
0.00456311
0.00466613
0.00506033
0.00534951
0.00553855
0.0061621
0.00543028
0.00516665
0.00499293
0.00486638
0.0048129
0.00491129
0.00521472
0.00536994
0.00547146
0.00620953
0.00550428
0.00528514
0.00516126
0.00508284
0.00505589
0.00517565
0.00531144
0.0053671
0.00538979
0.00651989
0.00561402
0.0053847
0.00529671
0.00525214
0.0052431
0.00528734
0.005302
0.00525991
0.00489513
0.00697701
0.00571892
0.00543495
0.00536118
0.00532344
0.00530681
0.00528565
0.00522537
0.00496048
0.00470388
0.00731055
0.00586531
0.00545488
0.00536719
0.00533534
0.00530555
0.00523776
0.0050474
0.00476766
0.0046554
0.00767731
0.00604574
0.00546395
0.00534047
0.00531812
0.00526985
0.00517099
0.00488397
0.00467302
0.0046003
0.00773041
0.00652771
0.00556573
0.00533945
0.00527887
0.00524985
0.00514451
0.00486655
0.00464036
0.0044718
0.00737315
0.00692185
0.00584186
0.00539918
0.00529352
0.00524434
0.0051545
0.00488472
0.00463282
0.0044856
0.00667062
0.00678078
0.00612499
0.00549361
0.00533753
0.00526585
0.00519744
0.00496181
0.00463755
0.00472783
0.00345405
0.00352914
0.00306629
0.00284668
0.00261782
0.00253704
0.00264322
0.00281092
0.00306291
0.00354731
0.00354413
0.00355151
0.00303679
0.00282557
0.00265852
0.00261366
0.00272683
0.00295662
0.00319698
0.00375423
0.00374355
0.00355499
0.00306259
0.00286245
0.00275265
0.00273461
0.00288535
0.00310731
0.00356974
0.00396219
0.00401467
0.00363563
0.00317148
0.00299378
0.0029048
0.00287288
0.00305274
0.00345796
0.00380722
0.00383357
0.00425401
0.00384144
0.00337403
0.00317339
0.00309046
0.00311409
0.00341671
0.00371159
0.00380358
0.00352816
0.00448859
0.0040733
0.00370859
0.00350972
0.00342361
0.00344429
0.00368294
0.00384184
0.00377775
0.00318315
0.00457447
0.00414883
0.00383749
0.00368475
0.00361123
0.00366033
0.00388362
0.00394933
0.003772
0.00313331
0.00471772
0.00431632
0.00397759
0.00383419
0.00377833
0.00387617
0.0040398
0.00403056
0.00381201
0.00316579
0.00501373
0.00478886
0.00429363
0.00406285
0.00397263
0.00399089
0.00420308
0.0041895
0.00395776
0.00321487
0.00509571
0.00484798
0.00444451
0.00430695
0.00418829
0.00413208
0.0042163
0.00432884
0.00410494
0.0033469
0.00447701
0.00248915
0.00185525
0.00192258
0.00215817
0.0024484
0.00294725
0.00250628
0.00232709
0.00226826
0.00389361
0.00270285
0.00200604
0.0021008
0.00218916
0.00250062
0.0025775
0.00236712
0.00250483
0.00237113
0.00607228
0.00356136
0.00308866
0.00226133
0.00218997
0.00251413
0.00255653
0.00228768
0.00218888
0.00309094
0.00267496
0.00354026
0.00238757
0.00214187
0.00219365
0.0023429
0.00229993
0.00216089
0.00192087
0.00316154
0.00314175
0.00226185
0.00206563
0.00205608
0.00208135
0.00204895
0.00197789
0.00187121
0.0022317
0.00218622
0.00281055
0.00196193
0.00193223
0.00191698
0.00188702
0.00190233
0.00186382
0.00179294
0.00321719
0.00241278
0.00245381
0.00247595
0.00217675
0.002053
0.00198482
0.00213807
0.00196807
0.00190937
0.00228549
0.00365944
0.00266316
0.0022002
0.00214599
0.00219829
0.00199248
0.00186767
0.00184216
0.00220364
0.00261561
0.00394038
0.00264159
0.0021859
0.0019944
0.00198976
0.0019822
0.00195238
0.00195006
0.00247661
0.00290187
0.00410708
0.0026388
0.00232937
0.00214203
0.00198927
0.00192548
0.00200061
0.00235402
0.00243266
0.00244486
0.0037437
0.00096639
0.00100014
0.00100484
0.0010055
0.00100694
0.000975761
0.000834287
0.00072933
0.000697773
0.000689218
0.000975221
0.000997337
0.000999618
0.000990325
0.000968616
0.000884152
0.000758005
0.000722331
0.000722702
0.000674765
0.000984095
0.000994788
0.000993792
0.000973481
0.00092089
0.000816941
0.000726532
0.000701261
0.000675415
0.000671894
0.00098358
0.00098926
0.000977816
0.000938409
0.000879051
0.000800406
0.000728712
0.000694144
0.000688622
0.000697491
0.000981234
0.000982169
0.000965316
0.000929302
0.000877837
0.000809822
0.000774575
0.000730435
0.000737635
0.000742822
0.000976238
0.000975275
0.00095054
0.000913661
0.000879545
0.00083432
0.000809088
0.000790045
0.000776447
0.000764074
0.000965579
0.000960146
0.000937165
0.000912739
0.000880592
0.00086514
0.000830693
0.000817787
0.000777331
0.000773248
0.000958183
0.0009491
0.000905607
0.000763001
0.000774534
0.000808179
0.000803843
0.000790704
0.000760131
0.000780314
0.000943247
0.000860082
0.000731337
0.000701201
0.000687927
0.000714386
0.000736901
0.000773751
0.000778798
0.000780582
0.0009195
0.000826079
0.000727061
0.000736875
0.000709407
0.000705076
0.000722703
0.000730922
0.000701266
0.000631456
0.00129342
0.00130079
0.00130163
0.00128919
0.00125616
0.00118352
0.0010791
0.000960868
0.00085228
0.000799717
0.00127571
0.00126873
0.001248
0.00120348
0.00112208
0.00101569
0.000884922
0.000787609
0.000699674
0.000655129
0.00121694
0.00118305
0.00112301
0.00102782
0.000926096
0.000800636
0.000710795
0.000633761
0.000599189
0.000589102
0.00108179
0.00103773
0.000918174
0.000831582
0.000720716
0.000631742
0.000571239
0.000543637
0.000536788
0.000556148
0.000901255
0.00083403
0.000718195
0.000659936
0.000568515
0.000526012
0.000494809
0.000485753
0.000486594
0.000512869
0.000770828
0.000692583
0.000609091
0.000569
0.000505641
0.000478818
0.000446642
0.000441602
0.000449079
0.000480505
0.000636672
0.000563556
0.000509236
0.000463201
0.000436425
0.000427824
0.000420439
0.000414914
0.000432829
0.000461119
0.000531248
0.000497628
0.000451875
0.000431956
0.00042357
0.000405408
0.000404731
0.000400704
0.000413413
0.000426196
0.000508593
0.000468678
0.000452278
0.000450563
0.000440533
0.000403877
0.000402711
0.000396304
0.000408296
0.000410728
0.000528442
0.000474844
0.000454675
0.00046523
0.000455405
0.000402059
0.000392324
0.000395331
0.000397607
0.000345126
0.000526834
0.000450788
0.000445026
0.000445489
0.000451186
0.000471988
0.000496842
0.000515838
0.000542378
0.000591231
0.000532751
0.000447916
0.000435682
0.000436786
0.000446148
0.00046911
0.000487284
0.00050387
0.000537063
0.000595921
0.000571505
0.00046329
0.000434769
0.000431338
0.000438642
0.00045538
0.000470382
0.000485287
0.000523414
0.000587422
0.000692219
0.000523149
0.000462088
0.000434432
0.000426762
0.000432533
0.000440099
0.000462953
0.000492913
0.000520095
0.000939718
0.000709565
0.00056495
0.000484066
0.000447989
0.000425562
0.000414618
0.00043728
0.000452401
0.000449723
0.00108565
0.000931882
0.000767108
0.00062091
0.000511241
0.000441178
0.000403478
0.00040194
0.000404616
0.000384297
0.00112932
0.00102951
0.000926759
0.000766702
0.000606363
0.000484332
0.00040382
0.000366521
0.000354289
0.000333805
0.00111735
0.00103797
0.00096993
0.000866526
0.000704952
0.00054379
0.000427483
0.000355609
0.000326381
0.000312387
0.00105744
0.00101957
0.000963669
0.000900163
0.000773603
0.000617656
0.000470811
0.000365682
0.000320269
0.000305151
0.000892334
0.000917567
0.000909145
0.000877674
0.000809742
0.000668991
0.000519091
0.000391579
0.000323891
0.000303197
0.00250653
0.00255571
0.00269426
0.00299289
0.00318999
0.00340172
0.00381765
0.00475457
0.00470634
0.00429359
0.00255597
0.00254846
0.00258539
0.00271821
0.00297819
0.00320328
0.00351383
0.00413987
0.00436086
0.00407587
0.0029077
0.00267084
0.00260916
0.00264933
0.00275598
0.00292496
0.00320094
0.00360551
0.00413967
0.00397718
0.00348808
0.00303648
0.00278104
0.00270708
0.00274848
0.00285493
0.00307738
0.00344075
0.00400195
0.00396579
0.00397959
0.00350329
0.00312301
0.0029213
0.00287635
0.0029624
0.00318952
0.00353003
0.00400366
0.00404086
0.00520397
0.00450576
0.00391209
0.00351054
0.00336927
0.00345644
0.00363753
0.00394533
0.00418001
0.00420329
0.00681339
0.00587575
0.0051865
0.00473697
0.00451312
0.00450977
0.00453624
0.00451973
0.00450698
0.00442793
0.00623762
0.00571089
0.00539836
0.00517946
0.0050285
0.00483884
0.00472649
0.00466988
0.00458694
0.00444169
0.00482343
0.00479947
0.0048737
0.00485336
0.00482998
0.00471666
0.00460806
0.0045392
0.00443376
0.00427174
0.00386073
0.00418851
0.00440531
0.00444867
0.00442126
0.00436713
0.00429153
0.00419943
0.0040576
0.00380824
0.00205884
0.00211585
0.00218138
0.00234177
0.00253211
0.00265161
0.00279133
0.00305773
0.00362419
0.00395529
0.00209318
0.00211153
0.00215241
0.00224356
0.00239663
0.00253978
0.00269838
0.00294879
0.00339888
0.00376263
0.00232641
0.00220685
0.00219092
0.0022297
0.00232234
0.00242992
0.00256449
0.00273764
0.00308727
0.00342289
0.00266728
0.0024664
0.00232638
0.0023012
0.00233966
0.00242253
0.00251864
0.00265259
0.0029043
0.00320512
0.00292393
0.00276218
0.00257286
0.00246779
0.00244925
0.00247389
0.00254456
0.00266998
0.00291151
0.00316125
0.0035142
0.0033529
0.00309307
0.00288688
0.00275191
0.00270308
0.00272325
0.00281513
0.00301614
0.00324344
0.00505367
0.00475453
0.00426939
0.00385573
0.00353266
0.00333973
0.00327165
0.00331011
0.00339558
0.00352944
0.0055341
0.0052486
0.00482064
0.00446985
0.00420964
0.00399387
0.00387961
0.00383425
0.00380937
0.00374416
0.00471447
0.00468558
0.00462823
0.00447385
0.00431045
0.00414651
0.00403231
0.00395376
0.00386075
0.00378345
0.00349799
0.00368746
0.00397569
0.00408224
0.00406914
0.00399524
0.00390275
0.00382909
0.00371737
0.00366203
0.00182765
0.00187461
0.00193594
0.00202637
0.00215125
0.00227889
0.00237522
0.00249317
0.00266055
0.00301494
0.00184223
0.00186055
0.001911
0.00198604
0.00207977
0.00219226
0.00226692
0.00240183
0.00260202
0.00289453
0.00197055
0.00193302
0.00194606
0.00198783
0.0020658
0.0021557
0.00224769
0.00233232
0.0025232
0.00266726
0.00222767
0.00213461
0.00206243
0.00205947
0.00209348
0.0021622
0.00225149
0.00232409
0.0024595
0.0025736
0.00235347
0.00230405
0.00224277
0.00220461
0.00219729
0.00222789
0.00229551
0.00234644
0.00245203
0.00256817
0.00263716
0.00264506
0.0026061
0.00253834
0.00247782
0.00245311
0.00246097
0.00246844
0.00251517
0.00260445
0.00359754
0.00361885
0.00352389
0.00335469
0.00315637