/*--------------------------------*- C++ -*----------------------------------*\
  =========                 |
  \\      /  F ield         | OpenFOAM: The Open Source CFD Toolbox
   \\    /   O peration     | Website:  https://openfoam.org
    \\  /    A nd           | Version:  9
     \\/     M anipulation  |
\*---------------------------------------------------------------------------*/
FoamFile
{
    format      ascii;
    class       volScalarField;
    location    "80";
    object      f2.gas;
}
// * * * * * * * * * * * * * * * * * * * * * * * * * * * * * * * * * * * * * //

dimensions      [0 0 0 0 0 0 0];

internalField   nonuniform List<scalar> 
137980
(
0.000925371
0.000931545
0.00103262
0.00123098
0.00146378
0.00164206
0.00174871
0.00191486
0.00220601
0.00284534
0.000894499
0.000901695
0.00102189
0.00125539
0.00152329
0.00175458
0.00189576
0.00205564
0.00237529
0.00274345
0.000872194
0.000879506
0.00100343
0.00124401
0.0015388
0.00181362
0.00204496
0.00222272
0.00244284
0.00271001
0.000839265
0.000848935
0.000966403
0.0011977
0.00149565
0.001814
0.00211032
0.00236994
0.00256984
0.002724
0.000812014
0.000819083
0.00091278
0.0011152
0.00138855
0.00172803
0.00208269
0.0023707
0.00262636
0.00275456
0.000799724
0.000797542
0.000852603
0.00101112
0.00123377
0.00153118
0.00193394
0.00229188
0.00257696
0.00271531
0.000815375
0.000797425
0.000813337
0.000905612
0.00107435
0.00129312
0.00159388
0.00198029
0.00235005
0.00255576
0.000883441
0.000822246
0.000806779
0.000837928
0.000941986
0.00109538
0.00129077
0.00153101
0.0017692
0.00194931
0.000968494
0.000902814
0.000831586
0.000823515
0.000867115
0.000972294
0.00111249
0.00127356
0.00141525
0.00148404
0.00107745
0.00098294
0.000886923
0.000840046
0.000836884
0.000899979
0.00099235
0.00113428
0.00121617
0.00140882
0.000956796
0.000982054
0.00111011
0.00134383
0.00160137
0.001833
0.00216495
0.00232169
0.00215761
0.00348002
0.000929375
0.000962723
0.00112415
0.00138333
0.00168653
0.00201559
0.00246052
0.00266767
0.00256829
0.00367329
0.000905773
0.000946375
0.00112056
0.00139687
0.00172725
0.00215856
0.00274684
0.00312357
0.00315155
0.00404706
0.000871456
0.000914567
0.00107788
0.00134962
0.00172059
0.00222914
0.00295862
0.00368925
0.00385848
0.00429129
0.000845449
0.000874535
0.00100923
0.00125595
0.00162266
0.0021683
0.00289187
0.00390608
0.00437608
0.00452926
0.000836848
0.000846409
0.000923704
0.00112511
0.00144492
0.00195499
0.0027142
0.00374164
0.00440016
0.00461282
0.000866453
0.000849483
0.000865927
0.000985053
0.00123607
0.00161881
0.00224974
0.0032039
0.00416552
0.00453173
0.000989607
0.000892008
0.000866936
0.000890249
0.00104643
0.00130633
0.00169889
0.00231785
0.00323185
0.00403968
0.00121285
0.00101015
0.000907057
0.000876083
0.000926727
0.00109633
0.001343
0.00168223
0.00212643
0.00260859
0.00125469
0.0011184
0.000982165
0.000897987
0.000879549
0.000972316
0.00113115
0.00137417
0.00165922
0.0017333
0.00096994
0.00101159
0.00116303
0.00142717
0.00176377
0.00225078
0.0027786
0.00258632
0.0022178
0.00412815
0.000949337
0.00101034
0.00121056
0.00153141
0.00197699
0.00266394
0.00319235
0.00299011
0.00258311
0.00427118
0.000930338
0.00100739
0.00122793
0.00158502
0.00214759
0.00307418
0.00370173
0.0035502
0.00298133
0.00452594
0.000901009
0.000983233
0.00120331
0.00158683
0.0022272
0.00337925
0.00424906
0.0042739
0.00372119
0.00472783
0.000883872
0.000941832
0.0011343
0.00150615
0.00218151
0.00349174
0.00471989
0.00487612
0.00444271
0.00511449
0.000894088
0.000910581
0.00103223
0.00135308
0.00196835
0.00325052
0.00510769
0.00560377
0.00505149
0.00545688
0.000980466
0.000923668
0.000956325
0.00116422
0.00166129
0.00268079
0.00490399
0.00617038
0.00627539
0.00584205
0.00126592
0.00100285
0.000944257
0.00101846
0.0013444
0.0020628
0.00374682
0.00601227
0.00681361
0.00681891
0.00168714
0.00126663
0.00102189
0.000968639
0.00111565
0.00157772
0.00256203
0.0048535
0.0064114
0.0068995
0.00163925
0.0013926
0.00119681
0.000970028
0.000999079
0.0012789
0.00189556
0.00292649
0.00409837
0.00432984
0.00099793
0.00107662
0.00128377
0.00163341
0.00226884
0.00357305
0.00358866
0.0027951
0.00276623
0.00724055
0.000996541
0.00112313
0.00142163
0.00196359
0.00318824
0.0041389
0.0038727
0.00327442
0.00325257
0.00793845
0.000992982
0.00114842
0.00150868
0.00221844
0.00379188
0.00471475
0.0044493
0.00374805
0.00371059
0.00855038
0.000980768
0.00115013
0.00153779
0.00233868
0.00413437
0.00522867
0.00512278
0.00428022
0.00406221
0.00858014
0.00097453
0.00111192
0.00148066
0.00230552
0.00419315
0.00570629
0.00578368
0.00478652
0.00440041
0.00837941
0.000985492
0.00106765
0.00134453
0.00208654
0.0038823
0.00602268
0.00639647
0.00532673
0.00481363
0.00771246
0.00107154
0.00105272
0.00120636
0.00176017
0.00323646
0.00599571
0.00692634
0.00626634
0.00566005
0.00695328
0.00135907
0.0011229
0.00113373
0.00146103
0.0025534
0.00540317
0.00712827
0.0073962
0.00641165
0.00714113
0.00179025
0.00133917
0.00117004
0.00126644
0.00197164
0.00400215
0.00694161
0.00794929
0.00797677
0.00791881
0.00176936
0.00149411
0.00128197
0.00118063
0.00159612
0.00310469
0.00597457
0.00744311
0.00806834
0.00735713
0.00111858
0.0013327
0.00187926
0.00287514
0.00369487
0.00370128
0.00295098
0.00273885
0.00660203
0.0127251
0.00121426
0.00165587
0.00289453
0.00404452
0.00431361
0.00384027
0.00336358
0.00377038
0.00981051
0.0125503
0.00129299
0.00191446
0.00355088
0.0047132
0.00488926
0.00434936
0.00423
0.00585146
0.0106255
0.0108977
0.00133961
0.00203256
0.00385569
0.00531294
0.00557574
0.00527348
0.00528872
0.00757379
0.0107668
0.00985387
0.00135117
0.00199595
0.00369294
0.00566207
0.00614758
0.00613179
0.00616461
0.00841848
0.0109037
0.0103404
0.00132115
0.00182143
0.0031475
0.00566133
0.00665498
0.00677884
0.00681071
0.0083313
0.0108721
0.0112176
0.00132285
0.00160906
0.00259214
0.00503438
0.00687986
0.00738527
0.00731462
0.00813464
0.0106354
0.0112342
0.00145801
0.00148434
0.00209754
0.00380815
0.00670724
0.00787167
0.00805937
0.00822635
0.00972479
0.0108115
0.0017359
0.00154149
0.00175942
0.0028631
0.00577405
0.00789728
0.00878283
0.00855886
0.00971485
0.0107242
0.00178603
0.00162389
0.00163345
0.00226825
0.00435847
0.00750314
0.00889929
0.00957111
0.0100732
0.0110587
0.00218737
0.00224737
0.00226842
0.00253841
0.0029923
0.00271117
0.00265746
0.00516749
0.0130854
0.0132174
0.00308964
0.00340847
0.00356323
0.00358365
0.00345776
0.00340244
0.00471015
0.0100133
0.0114622
0.00614412
0.00384846
0.00416339
0.00428018
0.00426243
0.00426195
0.00527737
0.00852795
0.00963407
0.0070678
0.00357873
0.0044329
0.00497568
0.00521187
0.00533764
0.00590996
0.00782163
0.008643
0.00834791
0.00442214
0.00321461
0.00478426
0.00567444
0.00614784
0.00656603
0.00778243
0.0083992
0.00847541
0.00662551
0.00387981
0.00332494
0.00472533
0.00623273
0.00720461
0.00797641
0.00849212
0.00855526
0.00798656
0.00557783
0.00404549
0.00387069
0.00429013
0.00629424
0.0079845
0.0087536
0.00889894
0.00874989
0.00772431
0.00559349
0.00458072
0.00546502
0.00352756
0.00600127
0.00791328
0.00908526
0.00932913
0.00894887
0.00783726
0.00589149
0.00533597
0.00754295
0.00305785
0.00502427
0.00752271
0.00898538
0.00955101
0.00936578
0.00820945
0.00655979
0.00599585
0.00764032
0.00253519
0.0037583
0.00657316
0.00858929
0.00959394
0.00993532
0.00904812
0.00808748
0.00755439
0.00836105
0.00210406
0.00237992
0.00244742
0.00283502
0.0034654
0.0059122
0.0102702
0.0110871
0.00781884
0.00662253
0.00316919
0.00318936
0.00329633
0.00400442
0.0064791
0.00906194
0.00965282
0.00713026
0.0041204
0.00335202
0.00392377
0.00390981
0.00442884
0.00629116
0.00827881
0.00875965
0.00759256
0.00408152
0.00305233
0.00274642
0.00481141
0.00509439
0.00630725
0.00774891
0.00820257
0.00792996
0.0048772
0.00329149
0.00291355
0.00284324
0.00605419
0.00664476
0.00772172
0.00806692
0.00800696
0.00645379
0.00388911
0.00316609
0.00303863
0.00333547
0.00725386
0.00787317
0.00825807
0.00825742
0.00762444
0.00536091
0.00369889
0.00333094
0.00372278
0.00519744
0.00802888
0.0085098
0.00865045
0.00842023
0.00731022
0.0048924
0.00389363
0.00382504
0.00536724
0.00740146
0.00830634
0.00884142
0.00891545
0.00863759
0.00741735
0.00506032
0.00430532
0.00429338
0.00612321
0.00815993
0.00811605
0.00890929
0.00911042
0.0088372
0.00782916
0.0055544
0.0047516
0.00455254
0.005978
0.00796576
0.00785641
0.00889379
0.00918949
0.00922409
0.00862321
0.00662674
0.0057168
0.00516458
0.00601398
0.00780307
0.00692405
0.00708341
0.00647994
0.0062185
0.00555694
0.00496655
0.00452245
0.0041883
0.00404767
0.00402719
0.00586124
0.00576414
0.00517155
0.00493417
0.00438586
0.00385885
0.00341659
0.00317184
0.00303246
0.00296274
0.00535812
0.00511353
0.00467931
0.00447922
0.00383179
0.00344505
0.00321804
0.00309134
0.00305326
0.00303825
0.00537846
0.00502938
0.004707
0.00422017
0.00366548
0.00343418
0.00333422
0.00347675
0.00383863
0.0039973
0.00558627
0.00522709
0.00484716
0.00421556
0.00371248
0.00356124
0.00383229
0.00464536
0.0052103
0.00549851
0.00613468
0.00564119
0.00510319
0.00431751
0.00391282
0.00383502
0.00428789
0.00518438
0.00599906
0.00638237
0.00687306
0.00623449
0.00549318
0.00454834
0.00402515
0.00387205
0.0041513
0.0050607
0.00633247
0.00683318
0.00750387
0.00694399
0.00592013
0.00496138
0.00421899
0.00391137
0.00391778
0.00434798
0.00581702
0.00695704
0.00788773
0.00759455
0.00664215
0.0057372
0.004678
0.00408176
0.00392772
0.00405009
0.00472746
0.00681401
0.00818093
0.00817782
0.00737774
0.00654559
0.00599481
0.00495151
0.00438853
0.00450392
0.00495131
0.00669889
0.00525665
0.00543814
0.00495936
0.00477632
0.00448268
0.00434165
0.00415048
0.00406306
0.00399575
0.00397712
0.00470896
0.00462706
0.00423856
0.00409264
0.00396009
0.00391744
0.00390266
0.00385944
0.00376298
0.00364404
0.00423035
0.00402805
0.00378898
0.00372557
0.0037292
0.00390951
0.0041528
0.00429707
0.00438632
0.00441754
0.00405104
0.00366742
0.0034884
0.00345555
0.00357178
0.00385561
0.00417457
0.00452196
0.00468254
0.00475528
0.00417539
0.00353149
0.00328622
0.00321545
0.00327102
0.00359641
0.00411823
0.00471423
0.00496847
0.00501152
0.00465616
0.00366947
0.0032886
0.00306413
0.00300971
0.00321499
0.0038071
0.00470307
0.0050861
0.00510984
0.00559353
0.00417654
0.00347294
0.00313619
0.00296445
0.00291696
0.00322325
0.00388857
0.00492341
0.00513153
0.00663023
0.00499567
0.00394547
0.00349492
0.00331988
0.00314841
0.00312449
0.0034407
0.00417102
0.00524141
0.007261
0.00585772
0.00496629
0.00439307
0.00441095
0.00419315
0.00381309
0.00381437
0.00403164
0.00513923
0.00769238
0.00676543
0.00589239
0.00591977
0.00614277
0.00543968
0.00492029
0.00495367
0.00511523
0.00551129
0.00550782
0.00573857
0.00575367
0.00566429
0.00555919
0.00540813
0.00528991
0.00518842
0.00514516
0.00514008
0.00455357
0.00470229
0.00472965
0.00473432
0.00468567
0.00465532
0.00456942
0.00448997
0.00436725
0.0042679
0.00408469
0.00406022
0.00405436
0.00409299
0.0041784
0.00425355
0.00428581
0.00429397
0.0042645
0.00418659
0.00359104
0.00342335
0.00339378
0.00341719
0.00357745
0.00384517
0.0040214
0.0041699
0.00422594
0.00422623
0.00361173
0.00306668
0.00288703
0.00283299
0.0028581
0.00316263
0.00355438
0.00399667
0.00424912
0.00433773
0.00388922
0.00324276
0.00277392
0.00250617
0.00243535
0.0024923
0.00275563
0.00325609
0.00396114
0.00449867
0.00506461
0.00379188
0.00299515
0.00260701
0.00239882
0.00239296
0.00251846
0.00291419
0.00352148
0.0045308
0.00601378
0.00485234
0.00352182
0.00290805
0.00269902
0.00274141
0.00284508
0.00306646
0.00345259
0.00448741
0.00635271
0.00560434
0.00440379
0.00351529
0.00358708
0.00381459
0.00380017
0.00387101
0.00409085
0.00474099
0.00649065
0.00566064
0.00465561
0.00450134
0.00510639
0.00518154
0.00491411
0.0049066
0.00489036
0.00506049
0.00747099
0.00842484
0.00873905
0.00890796
0.00892891
0.00859432
0.00821644
0.00767732
0.00737091
0.00696333
0.00599122
0.00625977
0.00631911
0.00632316
0.00619405
0.00598611
0.00563449
0.00527952
0.00504697
0.00473961
0.00543903
0.00556753
0.00558751
0.00548177
0.0053277
0.0051469
0.004907
0.00462528
0.00442661
0.00411179
0.0046135
0.00465263
0.00469385
0.00471838
0.00471756
0.00464194
0.0045058
0.00435399
0.00413318
0.00391579
0.0040273
0.00388753
0.00386881
0.00388735
0.00394826
0.00399047
0.0039992
0.0039068
0.00375937
0.00370274
0.00378555
0.00347464
0.00320215
0.00308954
0.00305128
0.0030654
0.00318519
0.00332139
0.00325274
0.00328925
0.00428921
0.00371512
0.00315563
0.0028113
0.00261334
0.00254682
0.00257499
0.00269205
0.00273425
0.00296688
0.00542356
0.00431145
0.0034366
0.00293508
0.00267726
0.00256712
0.00253789
0.00255547
0.00262821
0.00288708
0.00602529
0.00550567
0.00417639
0.00325778
0.00294264
0.00293951
0.00305347
0.00318725
0.00332096
0.00367809
0.00602624
0.00576966
0.00457275
0.00361534
0.00363881
0.00388448
0.00397867
0.00402314
0.00401427
0.00419477
0.00439391
0.00421841
0.00332618
0.00294716
0.00278195
0.00273935
0.00286527
0.00352738
0.00568832
0.0100786
0.00617753
0.00493191
0.00415035
0.00369479
0.00356215
0.00385892
0.00515718
0.00712686
0.00803498
0.00824447
0.0070796
0.00681557
0.00609431
0.00576869
0.00573439
0.00649208
0.00688866
0.00704339
0.00659764
0.00466462
0.00721207
0.00729266
0.00712901
0.00689864
0.00680619
0.00678963
0.00666784
0.0059602
0.00434931
0.00370643
0.00668148
0.00716274
0.00714689
0.00696602
0.00677576
0.00652109
0.00576583
0.00439203
0.00371993
0.00338692
0.00575978
0.00653876
0.00674516
0.00672432
0.00649131
0.00593496
0.00494744
0.0039645
0.0035384
0.00333093
0.00550216
0.00563348
0.00611362
0.00614794
0.00594043
0.00530944
0.00433295
0.00352782
0.00326128
0.00317643
0.00582804
0.0051065
0.00520113
0.00550381
0.00553523
0.00517072
0.00438833
0.00352215
0.00311804
0.00304823
0.00659919
0.00533104
0.0047919
0.004707
0.00476015
0.00475483
0.00449115
0.00375959
0.00328772
0.00328967
0.0062703
0.00584874
0.00464645
0.00423296
0.00431309
0.00449966
0.00448261
0.00428195
0.00381047
0.00351274
0.0107075
0.010471
0.00918313
0.00820717
0.0078994
0.00842955
0.00762655
0.005536
0.00393365
0.00313791
0.00878251
0.00814315
0.00752561
0.00699122
0.00677279
0.00690757
0.00764944
0.00742256
0.00647208
0.00476114
0.00791453
0.00751665
0.00715244
0.0067504
0.00661547
0.00673042
0.00711025
0.00762826
0.0071778
0.00549668
0.00707161
0.00702605
0.00680388
0.00649849
0.00652915
0.006674
0.00702835
0.00744209
0.00686352
0.00518026
0.00682881
0.00680996
0.00647941
0.00624355
0.00630738
0.00651371
0.00680579
0.00687797
0.00603966
0.00470913
0.00674092
0.00652938
0.00604915
0.00597623
0.00612418
0.00627429
0.00637531
0.00627112
0.00539014
0.00460094
0.00667001
0.00623659
0.00583912
0.00568845
0.00583
0.00594172
0.00601291
0.00586935
0.00524763
0.00457948
0.00642856
0.00609422
0.00569282
0.00534618
0.0054113
0.00555776
0.0057596
0.00573308
0.00522923
0.00456224
0.00596146
0.00603072
0.0056362
0.00516684
0.00500878
0.00509515
0.00533724
0.00545251
0.00506021
0.00461045
0.00531403
0.00587372
0.00550174
0.00507785
0.00488252
0.00482354
0.00503176
0.00533139
0.00506779
0.0045316
0.0125921
0.0112852
0.01045
0.00935035
0.00798427
0.0071385
0.00683943
0.00682285
0.00687925
0.00712806
0.00933271
0.00868309
0.0082893
0.00766924
0.00685837
0.00637114
0.00616291
0.00617359
0.0062526
0.00621709
0.00803142
0.00787607
0.0076013
0.00700082
0.00631939
0.0058955
0.00564487
0.00567442
0.00583744
0.00581403
0.00759151
0.0075111
0.00711481
0.00623347
0.00561561
0.00526459
0.0052533
0.00535458
0.00556731
0.00549976
0.00742221
0.00724917
0.00645474
0.00559175
0.00512751
0.00501543
0.00508969
0.00528025
0.0054621
0.00537677
0.00724376
0.00690177
0.00590058
0.00522229
0.00489845
0.00489752
0.00502737
0.00524612
0.00525002
0.00519344
0.0069915
0.00661228
0.00563643
0.00501077
0.00476431
0.00481044
0.00504613
0.00523531
0.00515333
0.00502081
0.00667015
0.00645609
0.0055157
0.00492526
0.00470624
0.00475945
0.00508963
0.00526567
0.00516044
0.0050123
0.00638148
0.00631351
0.00546897
0.0049166
0.00471542
0.0047611
0.00511627
0.00533394
0.00534097
0.00531633
0.00610882
0.00611969
0.00541977
0.00500482
0.00488296
0.00507942
0.00531504
0.00538483
0.00532192
0.00500038
0.00815146
0.00760168
0.00673574
0.00615998
0.00581909
0.00547858
0.00522837
0.00532765
0.00582762
0.00592377
0.00822983
0.00745963
0.0064159
0.00565771
0.0051723
0.00483415
0.00471676
0.00477865
0.00506372
0.00522827
0.0076709
0.0067944
0.00575984
0.00498208
0.00439563
0.00402546
0.00403019
0.00414402
0.00443895
0.00461417
0.00744736
0.00649502
0.00543771
0.00446759
0.00388954
0.00366504
0.00367717
0.00378772
0.00407739
0.00436052
0.00708916
0.00593279
0.00494998
0.00410661
0.00369995
0.00354556
0.00356593
0.00368688
0.00394392
0.0043327
0.00679953
0.00566506
0.00473262
0.00398729
0.00364678
0.00352398
0.00355194
0.00368604
0.00396383
0.00432644
0.00643318
0.00538324
0.00463119
0.00396263
0.00368457
0.00362437
0.00364439
0.00376503
0.00403166
0.00437799
0.00622486
0.00525295
0.00460553
0.00409774
0.00393759
0.00391069
0.00393967
0.00398824
0.00410144
0.00444505
0.00606798
0.00513731
0.00463621
0.00430893
0.00422536
0.00428706
0.00434801
0.00438013
0.0045023
0.00465984
0.00600012
0.00507845
0.00465009
0.00446472
0.00443985
0.00449065
0.00449335
0.00444435
0.00434889
0.00414633
0.00643268
0.00502297
0.0044124
0.0040306
0.00384418
0.00367291
0.00365036
0.0038645
0.00450623
0.00535428
0.00673516
0.00515003
0.00432553
0.00383679
0.00356608
0.00337212
0.00332219
0.00339505
0.0037462
0.00384421
0.00646688
0.00484988
0.00404224
0.00360974
0.00339077
0.00321965
0.0031254
0.0031476
0.00330066
0.00339437
0.00632209
0.00472075
0.00392753
0.00351606
0.00332379
0.00316496
0.00305213
0.00302602
0.00307227
0.00319092
0.00597456
0.00447138
0.00379575
0.00347691
0.00330954
0.00316037
0.00304467
0.00298946
0.00301221
0.0031604
0.00580675
0.00435635
0.00373908
0.00346995
0.00335963
0.00324726
0.00311431
0.00301643
0.00302522
0.00323461
0.00552851
0.00419428
0.00370752
0.00352183
0.00347698
0.00339636
0.00327098
0.00314128
0.00309893
0.00336161
0.00539673
0.00412181
0.00369808
0.00361378
0.00361326
0.00357726
0.00347821
0.00336836
0.00326051
0.00335883
0.00532624
0.00405589
0.00369631
0.00368807
0.00374537
0.00373267
0.00361932
0.00354481
0.00361519
0.00363526
0.00530871
0.00401531
0.00369558
0.00375991
0.00383002
0.00380571
0.00366182
0.0035855
0.00348699
0.00325216
0.00793489
0.00751109
0.00709169
0.00634437
0.00585062
0.00550153
0.00536072
0.00519244
0.00491225
0.00408402
0.00806958
0.00760403
0.00722775
0.00634062
0.00573823
0.00539758
0.00504113
0.00483914
0.00435839
0.0040464
0.00799735
0.00760277
0.00732582
0.00644402
0.00573509
0.00535397
0.00488564
0.00445168
0.00400375
0.00339122
0.00774824
0.00745644
0.00739012
0.00674524
0.00593572
0.00537242
0.00473193
0.00414068
0.00358491
0.00307572
0.00753315
0.00714582
0.00740168
0.00692048
0.00612738
0.00549419
0.00467392
0.00400721
0.00343674
0.00296121
0.0074388
0.00668763
0.00733132
0.00707281
0.0062789
0.00568103
0.00474069
0.00398102
0.00340475
0.00294977
0.00743196
0.00605042
0.00705659
0.00713235
0.00647493
0.00594272
0.00510262
0.00420956
0.00364708
0.00310788
0.00793152
0.00531637
0.0066039
0.00713537
0.00656794
0.00620352
0.00548302
0.00458337
0.00395422
0.00353434
0.0084631
0.00488289
0.00567407
0.00693531
0.0066016
0.00632372
0.00603016
0.00525242
0.00447022
0.00409114
0.00867052
0.00461966
0.0046461
0.00645926
0.00650631
0.00633979
0.00625869
0.00608739
0.00582987
0.00542921
0.010034
0.00685941
0.0060243
0.00574458
0.00552477
0.00529574
0.0049195
0.00445653
0.00440313
0.00480793
0.0098207
0.00709229
0.00604336
0.00571139
0.00545544
0.00521624
0.00479138
0.00429753
0.00431595
0.00444959
0.0101965
0.00703165
0.00578727
0.00559933
0.00544315
0.00520427
0.00474968
0.00422182
0.00405931
0.00404463
0.0103329
0.00692781
0.00562896
0.0055458
0.00546016
0.00522563
0.00473612
0.00413104
0.00382332
0.00388323
0.0103197
0.00656489
0.00532637
0.00539974
0.00550655
0.005323
0.00475466
0.00408096
0.00364311
0.00355619
0.00973524
0.00614633
0.00510408
0.00531468
0.00558429
0.00547949
0.00486347
0.00406325
0.00353613
0.00322744
0.00944314
0.00566171
0.00482312
0.0051654
0.00562706
0.00558442
0.0050303
0.00409796
0.00353573
0.00323589
0.00902176
0.00535328
0.00458685
0.00505793
0.00562987
0.00561469
0.00514303
0.00425733
0.0037634
0.00353643
0.00887908
0.00517604
0.00432673
0.00488942
0.00555915
0.00559434
0.00516901
0.00432761
0.00388894
0.00360408
0.00886989
0.00509394
0.00415478
0.00475084
0.00533676
0.00542543
0.00514273
0.00439137
0.00390788
0.00362926
0.00735737
0.00577225
0.00519633
0.00495383
0.0048369
0.00479634
0.00504544
0.00574543
0.00605417
0.00610239
0.0069312
0.00597115
0.00556362
0.00535592
0.00527072
0.00525336
0.00550985
0.0059588
0.0061784
0.00643732
0.00734494
0.00627332
0.00590806
0.00574442
0.00568545
0.00575341
0.00601402
0.00631543
0.00646478
0.00654112
0.00802687
0.00666815
0.00623826
0.00606733
0.00601526
0.00613637
0.00629372
0.00636848
0.00637584
0.00585568
0.00883773
0.00704643
0.0065086
0.00630453
0.00624061
0.00628909
0.00631326
0.00629826
0.00596137
0.00514739
0.00942022
0.00747736
0.00678417
0.0065001
0.00636975
0.00631119
0.00627185
0.00608384
0.00546374
0.00500487
0.0098655
0.00787977
0.00704637
0.00671662
0.00644409
0.00630102
0.00614448
0.0057025
0.00516415
0.00491111
0.009875
0.00860438
0.00731862
0.00688704
0.00659505
0.00630973
0.00596085
0.00548386
0.0049994
0.00463584
0.00956158
0.00908952
0.00781619
0.00709398
0.00682404
0.00636839
0.0059801
0.00537418
0.00481982
0.00464172
0.00903776
0.00917941
0.00820677
0.00724912
0.00697193
0.00657127
0.00614789
0.00545366
0.00485676
0.00499605
0.00356824
0.00352343
0.00300605
0.00276943
0.00254725
0.00253817
0.0027583
0.00305158
0.00317909
0.00337793
0.00375772
0.00356507
0.0030214
0.00278945
0.00266255
0.0026754
0.00292388
0.00318855
0.00330256
0.00368723
0.00406336
0.00362449
0.00315984
0.00294385
0.0028728
0.00288484
0.00315017
0.0033113
0.00363259
0.00398898
0.00434489
0.00379553
0.00338213
0.00318811
0.00310451
0.00309515
0.0033093
0.00356386
0.00388554
0.00394623
0.0045382
0.0040027
0.00363546
0.00345349
0.00336902
0.00336844
0.0036163
0.00385562
0.0039699
0.00374869
0.0047444
0.00411085
0.0038311
0.00372308
0.00367508
0.0036803
0.00386052
0.00398126
0.00394791
0.00346212
0.00484883
0.00430647
0.00407294
0.00397835
0.00392755
0.00395002
0.00404392
0.00405284
0.00392932
0.00340153
0.00497864
0.00448238
0.00424676
0.00419596
0.00416213
0.00421019
0.00424329
0.00416969
0.00395248
0.00342705
0.00524865
0.00494863
0.00460016
0.00446705
0.00440278
0.00435803
0.00439668
0.00428476
0.00402238
0.00347097
0.0053994
0.00506019
0.00478921
0.00471241
0.0046712
0.00459517
0.0045928
0.00450804
0.00417752
0.00358797
0.000901865
0.000920595
0.000993932
0.00129727
0.00170561
0.00178338
0.00211612
0.00190078
0.00102744
0.000862754
0.000952691
0.000993138
0.00113166
0.00142069
0.00173938
0.0019122
0.00221928
0.00203337
0.00129116
0.000916642
0.00120454
0.00122276
0.00132757
0.00164628
0.00182374
0.00192701
0.00218921
0.00203438
0.00136116
0.000925617
0.00143819
0.00151292
0.00170886
0.00178577
0.00181973
0.00189499
0.00199097
0.00182766
0.00144659
0.00102058
0.00134097
0.00173605
0.00175021
0.0017498
0.00174173
0.00172927
0.0016545
0.00149949
0.00145862
0.00117291
0.00136893
0.00168969
0.00161222
0.00157742
0.00155967
0.00150125
0.00146267
0.00145293
0.00143788
0.00113455
0.00134081
0.00173042
0.00168079
0.00167544
0.00162838
0.00158588
0.00151794
0.00145625
0.00122725
0.00109954
0.00127455
0.00164221
0.0016481
0.00170551
0.00167628
0.00160794
0.00148944
0.00133571
0.00113228
0.00108321
0.001193
0.00157447
0.00150761
0.00151296
0.00160451
0.00160512
0.00151332
0.00132315
0.0011206
0.00106642
0.00116679
0.00137863
0.00139767
0.00139785
0.00147992
0.00152786
0.00146031
0.00126364
0.00111448
0.00107426
0.000729078
0.00075285
0.000756796
0.000750054
0.000701923
0.000580253
0.000507337
0.000480974
0.000473921
0.000472889
0.00073924
0.000749963
0.000747109
0.000713464
0.000620475
0.000525617
0.000492178
0.000484713
0.000496105
0.000472792
0.000739479
0.000745602
0.00073438
0.000675404
0.000574628
0.000507051
0.000486959
0.000482734
0.000474532
0.000468546
0.000737282
0.000737252
0.000711361
0.000647151
0.000554818
0.00050713
0.000485366
0.000481179
0.000472371
0.000475427
0.000731952
0.000728839
0.000696707
0.000635352
0.000557914
0.00051335
0.000495287
0.000480791
0.000482811
0.000493344
0.00072656
0.000717706
0.000679837
0.00063127
0.000569804
0.000531998
0.000507312
0.000508299
0.000516065
0.000513014
0.00071533
0.00070334
0.000669007
0.000633207
0.000596711
0.000578911
0.000552617
0.000546134
0.000530214
0.000514008
0.000708964
0.000689754
0.000641358
0.000535175
0.000549043
0.000559534
0.000556557
0.000549294
0.000502973
0.000490281
0.00069612
0.000612512
0.000504026
0.000483394
0.000486224
0.000512531
0.000523222
0.000510546
0.000481595
0.000470631
0.000675075
0.000580394
0.000485213
0.000486484
0.000486964
0.000511727
0.000505302
0.000452476
0.00041459
0.00038465
0.00105047
0.00105528
0.00104483
0.00101636
0.000952303
0.000878821
0.000769528
0.000672901
0.000595324
0.000561471
0.00100768
0.000994093
0.000942242
0.000875637
0.000810482
0.00071438
0.000631441
0.000561886
0.000527065
0.000510657
0.00089497
0.000872906
0.000790246
0.000740089
0.000650913
0.000586853
0.000525067
0.00049328
0.000478893
0.000476477
0.000769041
0.000744225
0.000649996
0.00060724
0.000530718
0.000494693
0.000447157
0.000430007
0.000425337
0.000456839
0.000642999
0.000602301
0.000528992
0.000496493
0.000438079
0.000411539
0.000384192
0.000377928
0.00038314
0.000409232
0.000546525
0.00050292
0.000454992
0.000430724
0.000384721
0.000365739
0.000340888
0.00033943
0.000354849
0.000385903
0.000490952
0.000456188
0.00043036
0.00040659
0.000378673
0.00035363
0.00032814
0.000322083
0.000338669
0.000370898
0.000461617
0.000444372
0.000427593
0.000416059
0.000411747
0.000348493
0.000324843
0.000311985
0.000334393
0.000356611
0.000461202
0.00044537
0.000441446
0.000456205
0.000443349
0.000359821
0.000324067
0.000313777
0.000332205
0.000336588
0.000477312
0.000451595
0.00046096
0.000486912
0.00045704
0.000361934
0.000329983
0.000318836
0.00032278
0.000265142
0.000438803
0.000360026
0.000345926
0.00034321
0.000348281
0.000375266
0.000410338
0.000434115
0.000451556
0.000484622
0.000450699
0.000362757
0.00034092
0.00033426
0.000338214
0.000361636
0.00038712
0.000410411
0.000440131
0.000486457
0.000502172
0.000387344
0.00034963
0.00033462
0.000333207
0.00034616
0.000365873
0.000394298
0.000428481
0.000472841
0.000662401
0.000471655
0.000397875
0.000361055
0.000346047
0.000342258
0.000348952
0.000379258
0.000405207
0.000416448
0.000957527
0.000727865
0.000557201
0.000456513
0.000410824
0.000363502
0.000338995
0.000359121
0.000372873
0.000364144
0.00114028
0.000997236
0.000854011
0.000688577
0.000529775
0.000407414
0.000336678
0.000329401
0.000333172
0.000307322
0.00120587
0.00112247
0.00104098
0.000907693
0.000694421
0.000502436
0.000357161
0.000305643
0.000289695
0.00026566
0.001206
0.00114248
0.0010898
0.00101632
0.000865272
0.000610008
0.000410967
0.000304506
0.000267481
0.000247401
0.00116668
0.00113346
0.00108864
0.00104019
0.000955358
0.000754968
0.000498433
0.000334509
0.000265322
0.000242331
0.00102305
0.00105932
0.0010528
0.00102638
0.000972861
0.0008533
0.000595254
0.000389106
0.000276511
0.000242215
0.00196291
0.00199159
0.00209264
0.00236475
0.00256061
0.00276371
0.00312737
0.00388413
0.0039674
0.00363065
0.00203566
0.00198961
0.00199317
0.00208054
0.00229674
0.00251846
0.00286402
0.00328424
0.00359702
0.00335484
0.00243129
0.00210522
0.002
0.00198996
0.00204068
0.00215619
0.00238624
0.002724
0.0032203
0.00320386
0.00290684
0.00248809
0.00212244
0.00200648
0.00201894
0.00208223
0.00224947
0.00255899
0.00306458
0.00317972
0.00330497
0.00286736
0.00241505
0.00215997
0.00211278
0.00217678
0.00235009
0.00265904
0.00310001
0.00320053
0.00432116
0.00370399
0.00311386
0.00268301
0.00251376
0.0025983
0.00280436
0.00306873
0.003276
0.00330223
0.00538886
0.00458949
0.00402782
0.00367629
0.00349993
0.00350181
0.00359761
0.0036324
0.00357424
0.00344274
0.0049402
0.00445802
0.00415502
0.00397426
0.00388186
0.00378604
0.00373734
0.0036881
0.00356934
0.00340871
0.00370961
0.00368106
0.00367911
0.00361981
0.00363018
0.00361051
0.00357287
0.00351024
0.00339757
0.00322725
0.00287239
0.00300639
0.00314179
0.00322427
0.00325754
0.00324677
0.00321071
0.00313362
0.00299105
0.0027611
0.00166919
0.00169309
0.00173245
0.00183546
0.00200785
0.00212136
0.00225867
0.00254607
0.00298357
0.00328234
0.00171925
0.00171121
0.00172251
0.00175316
0.00185265
0.00199038
0.0021426
0.00239296
0.0027381
0.00301425
0.00199894
0.00182621
0.00175405
0.00175011
0.00176411
0.00181359
0.00190611
0.00205533
0.00234774
0.00256892
0.00231132
0.00212453
0.00190309
0.00178957
0.00176407
0.00177256
0.0018103
0.00189639
0.00208076
0.00234726
0.00253049
0.00237084
0.00213285
0.00194175
0.00183034
0.00179857
0.00182654
0.00190097
0.00206426
0.00227603
0.00302602
0.00287462
0.00259775
0.00233576
0.0020991
0.00197078
0.00196358
0.00201725
0.0021422
0.00230135
0.00417103
0.00391784
0.00350651
0.00310072
0.00275455
0.00251179
0.00240941
0.00239382
0.00242734
0.00248023
0.00444243
0.00414402
0.0037681
0.0034342
0.00320447
0.00306006
0.00296407
0.002853
0.0027712
0.00270675
0.00367169
0.00361129
0.00354387
0.00340359
0.00328429
0.00318551
0.00308099
0.00296823
0.00285846
0.00278285
0.00268314
0.00280937
0.00297628
0.00305215
0.00304841
0.00300027
0.00293158
0.00286622
0.00278264
0.00267825
0.00147092
0.0015022
0.00153268
0.00158029
0.00168061
0.00178707
0.00185719
0.0019885
0.00213837
0.00248142
0.00149601
0.00150705
0.00153103
0.00155781
0.00160043
0.00168838
0.00176467
0.00189145
0.00206622
0.00228292
0.00167354
0.00159534
0.00156588
0.00157026
0.00158782
0.00161708
0.00165572
0.00172471
0.00190128
0.00198526
0.00193916
0.00183567
0.00171035
0.00163224
0.00160755
0.00161373
0.00162204
0.00164456
0.00171507
0.00179281
0.00205809
0.00199779
0.00188359
0.00178037
0.0017068
0.00165866
0.00163587
0.00164552
0.00168057
0.00175011
0.00231221
0.00229558
0.00221991
0.00211125
0.00200705
0.00187801
0.00176396
0.00170923
0.00172294
0.00176595
0.0031272