/*--------------------------------*- C++ -*----------------------------------*\
  =========                 |
  \\      /  F ield         | OpenFOAM: The Open Source CFD Toolbox
   \\    /   O peration     | Website:  https://openfoam.org
    \\  /    A nd           | Version:  9
     \\/     M anipulation  |
\*---------------------------------------------------------------------------*/
FoamFile
{
    format      ascii;
    class       volScalarField;
    location    "80";
    object      f3.gas;
}
// * * * * * * * * * * * * * * * * * * * * * * * * * * * * * * * * * * * * * //

dimensions      [0 0 0 0 0 0 0];

internalField   nonuniform List<scalar> 
137980
(
0.00144382
0.00144619
0.00154408
0.00173887
0.00196135
0.00216873
0.0023251
0.00257002
0.00290847
0.00363939
0.00140969
0.0014159
0.00154019
0.00176995
0.00203281
0.00228857
0.00249177
0.00273793
0.0031572
0.00357874
0.00138135
0.00138854
0.00151924
0.00176592
0.00206119
0.00235067
0.00262621
0.00290823
0.00325838
0.00355436
0.00133978
0.00135031
0.00147592
0.00171635
0.00202255
0.0023594
0.00268702
0.00302466
0.0033426
0.00354475
0.00129943
0.00130944
0.00141351
0.00162718
0.00191559
0.00228047
0.00265749
0.0030044
0.00332878
0.00350793
0.0012781
0.0012772
0.00134277
0.00151188
0.00175109
0.00208102
0.00250776
0.00290274
0.00324482
0.00341456
0.00129148
0.00127333
0.00129454
0.00139524
0.00157606
0.00182115
0.00215168
0.00256955
0.00297486
0.00320465
0.00137313
0.00129975
0.00128545
0.00132129
0.00143173
0.00160117
0.00182094
0.00208052
0.0023452
0.00256467
0.00149357
0.00139232
0.00131071
0.0013058
0.00134795
0.0014618
0.00162102
0.00181582
0.00200758
0.00211284
0.00161617
0.00149568
0.00138261
0.00132602
0.00131968
0.00137067
0.00147532
0.00165362
0.00179953
0.00202533
0.00146968
0.00148971
0.00161406
0.00184598
0.00211461
0.00239534
0.00282659
0.00302172
0.00283499
0.0041554
0.00143962
0.00146947
0.00163354
0.00189894
0.00221891
0.00260085
0.00316409
0.00340205
0.00329434
0.00435941
0.00140935
0.00144879
0.00163185
0.0019194
0.00226991
0.00275031
0.00348111
0.00388516
0.0038926
0.00474657
0.00136595
0.00140964
0.00158498
0.00187487
0.00227293
0.00282542
0.00367947
0.00448427
0.00466696
0.00505462
0.00133017
0.00136096
0.00150867
0.00177636
0.00217612
0.0027652
0.00358706
0.00472891
0.00521622
0.00535919
0.00131832
0.00132842
0.0014148
0.00163594
0.00198958
0.00254945
0.00337667
0.0045603
0.00524959
0.0054819
0.00135633
0.00133464
0.00135192
0.00148565
0.00176064
0.00218694
0.002878
0.00393758
0.0050085
0.00539949
0.00152342
0.00139287
0.001358
0.00138298
0.00155244
0.00184311
0.00228611
0.00295899
0.00397216
0.00487985
0.00181923
0.00155035
0.0014171
0.00136905
0.00141964
0.001609
0.00189158
0.00229067
0.0027985
0.00334856
0.00187989
0.00169568
0.00152126
0.00140281
0.00137074
0.00145644
0.00163467
0.00192806
0.00229777
0.00238878
0.00148134
0.0015205
0.00167465
0.00194412
0.00230009
0.00286161
0.00348768
0.00330464
0.00288271
0.00475103
0.00145922
0.00152115
0.00173183
0.00206801
0.00254473
0.00332358
0.00392871
0.00374564
0.0032948
0.00488885
0.0014348
0.00151668
0.00175394
0.00213421
0.00273637
0.00376415
0.00443769
0.00431455
0.00374136
0.00515053
0.0013982
0.00148865
0.00173093
0.00214471
0.0028286
0.00406918
0.00498011
0.00502341
0.00448387
0.00536039
0.00137567
0.00144213
0.00165771
0.00206562
0.00279097
0.00418289
0.0054471
0.00561849
0.00522919
0.0057389
0.00138798
0.00140869
0.00154835
0.0019045
0.00257444
0.00393151
0.00580531
0.0062955
0.00583125
0.00611253
0.00149937
0.00142843
0.00146598
0.00169994
0.00224895
0.00333745
0.00561717
0.00682571
0.00694328
0.0064905
0.00185416
0.00153184
0.0014572
0.00154212
0.00190624
0.00269522
0.00448267
0.00666431
0.00743548
0.00741954
0.00229549
0.00185414
0.00155755
0.00148922
0.00165449
0.00217641
0.0032405
0.00558282
0.00703877
0.00749808
0.00227511
0.00200565
0.00177037
0.00149419
0.00152006
0.00182912
0.00251736
0.00364291
0.00485281
0.00500196
0.0015117
0.00159565
0.00181721
0.00218317
0.00284866
0.00421857
0.00425607
0.0034578
0.00342161
0.00759114
0.00151264
0.00165235
0.00197485
0.00254734
0.00382555
0.00479481
0.00457249
0.00396074
0.0039172
0.00821294
0.0015082
0.0016836
0.00207759
0.00282032
0.00441686
0.00533164
0.00515021
0.00444536
0.00437678
0.00872777
0.00149496
0.00168873
0.00211488
0.00294984
0.00474228
0.00581406
0.0057798
0.00498728
0.00475171
0.00874781
0.00148891
0.00165171
0.00206206
0.00292813
0.00480416
0.00625855
0.00638221
0.00548616
0.00511259
0.00857303
0.00150587
0.00160689
0.00192235
0.00271122
0.00452146
0.00654873
0.00692559
0.00607196
0.00555293
0.00798287
0.00161413
0.00159396
0.00177509
0.00237639
0.0038812
0.00652287
0.00738743
0.00695044
0.00636908
0.0074249
0.00194173
0.00168345
0.00169802
0.00206694
0.00319828
0.00599273
0.00759714
0.00790488
0.00707266
0.00762965
0.0023779
0.00192958
0.00174346
0.00185875
0.00261164
0.00467049
0.00743479
0.00841073
0.00850154
0.00838564
0.00237643
0.00209132
0.00187395
0.00175918
0.00221624
0.00375731
0.00653119
0.00796363
0.00857654
0.00791305
0.00165618
0.00189056
0.00247585
0.00344983
0.00425338
0.00426772
0.0035517
0.00337204
0.00691975
0.0122401
0.0017686
0.00223866
0.00349514
0.00460724
0.00487664
0.00447291
0.00403331
0.00433353
0.00972269
0.0121043
0.00185974
0.00251627
0.0041401
0.00526357
0.00546426
0.00499948
0.00485908
0.00620454
0.0104644
0.0107282
0.00191896
0.00264556
0.00444692
0.00581438
0.00608223
0.00582926
0.00581881
0.00772836
0.0105866
0.00976842
0.00193865
0.00262651
0.0043224
0.00614407
0.00660203
0.00660332
0.00661903
0.00846854
0.0106454
0.010199
0.00191442
0.00245755
0.00380172
0.00616927
0.00707922
0.00720007
0.00720462
0.00840898
0.0106033
0.0108863
0.00192411
0.00224391
0.00326361
0.00568369
0.0073184
0.00776412
0.00770873
0.00832241
0.0103775
0.0108857
0.00207414
0.00211776
0.00277104
0.00449685
0.00717655
0.00821707
0.00836691
0.00842693
0.00964066
0.0104964
0.00234003
0.0021673
0.00242911
0.00355933
0.00642664
0.00824916
0.00902062
0.00878111
0.00969616
0.0104899
0.00238758
0.00225036
0.00229111
0.00296616
0.00511877
0.00793311
0.00916557
0.00973467
0.010133
0.010849
0.00275017
0.00282546
0.00285077
0.003114
0.00357784
0.00335011
0.00330162
0.00568132
0.0124057
0.0125339
0.00364385
0.00395958
0.00410465
0.0041348
0.00406823
0.00401786
0.00523331
0.0098311
0.0110768
0.00651343
0.00439962
0.00472486
0.00483925
0.0048422
0.00485616
0.00575515
0.00854514
0.00949872
0.00731196
0.00398525
0.00493682
0.00547022
0.00570311
0.00583394
0.00633907
0.00793808
0.00862798
0.00837834
0.00473217
0.00354004
0.00527572
0.00611545
0.00654262
0.00692182
0.00792302
0.0084171
0.0084683
0.00677312
0.00417273
0.00360863
0.00524617
0.00660181
0.00751086
0.00808147
0.00849583
0.00853782
0.00800686
0.00580152
0.00430251
0.00408011
0.00490344
0.00664785
0.00811273
0.00871729
0.00883453
0.00866841
0.0077564
0.00580778
0.00476762
0.00549041
0.00414598
0.00638836
0.0080591
0.00901563
0.00918606
0.00884126
0.00789085
0.00608263
0.00544323
0.0073761
0.00368641
0.0055676
0.00771061
0.00894018
0.0093828
0.00920439
0.00826595
0.00673784
0.00610563
0.00751076
0.00317086
0.00436337
0.00686853
0.00861915
0.00943454
0.00971651
0.00901644
0.00828398
0.00775949
0.00835516
0.00274202
0.00303755
0.00314111
0.00353182
0.00412324
0.00629713
0.00993207
0.0106041
0.0078933
0.00688002
0.00376045
0.00381766
0.00396541
0.00465696
0.00685205
0.00891998
0.00940013
0.00729746
0.00459919
0.0038721
0.00452595
0.00453667
0.00508061
0.00670651
0.0082976
0.0086599
0.00765617
0.00449764
0.00349976
0.00316415
0.0053687
0.00565089
0.00672141
0.00787513
0.00822356
0.00794091
0.00526663
0.00367812
0.00327174
0.00317587
0.00646286
0.00698057
0.00786001
0.00812985
0.00803871
0.00666763
0.0042395
0.00349963
0.00335964
0.00351757
0.00745051
0.00799383
0.00827338
0.00825341
0.00767395
0.00561513
0.00400215
0.00363501
0.00389627
0.00517308
0.00808458
0.00848268
0.0085819
0.00835907
0.0073744
0.00514131
0.00415893
0.0040486
0.00532588
0.00724614
0.008326
0.00875423
0.00880901
0.00855633
0.00746928
0.00528119
0.00448918
0.00443697
0.00602732
0.00797665
0.00817027
0.00880005
0.00896724
0.0087204
0.00782303
0.00571976
0.00488274
0.00468751
0.00595219
0.00780036
0.00791273
0.00879568
0.00901718
0.00903741
0.00852948
0.00670976
0.00580525
0.00527628
0.00603294
0.00767382
0.00705062
0.00720093
0.00666774
0.00642176
0.00582647
0.00529804
0.00487613
0.0045696
0.00443851
0.00441771
0.00613611
0.00604558
0.005508
0.00528796
0.00477486
0.00427159
0.00384901
0.00361224
0.00346331
0.00339059
0.00571657
0.0054832
0.00506576
0.00486811
0.0042155
0.00381471
0.00357369
0.0034313
0.00337963
0.00334895
0.00574046
0.00543084
0.0050741
0.0045534
0.00396376
0.00371736
0.00361142
0.00365099
0.00393283
0.00407956
0.00593907
0.00560633
0.00516601
0.0044738
0.00397092
0.00379357
0.00393132
0.00465907
0.00521828
0.00548626
0.00643412
0.0059743
0.0053479
0.00454624
0.00409166
0.00398611
0.00432588
0.00516985
0.00595528
0.00635399
0.00705703
0.00647967
0.00569187
0.00473499
0.00418185
0.00401254
0.00420255
0.00502647
0.00624581
0.00675362
0.00758481
0.00708217
0.00610065
0.00509591
0.00436811
0.00404313
0.00399285
0.00435756
0.00571813
0.00687727
0.00790231
0.00763246
0.00673054
0.00581331
0.00480144
0.00420926
0.00400798
0.00410562
0.00467035
0.00658594
0.0081102
0.00814073
0.00738703
0.00656753
0.00600748
0.00502841
0.00446625
0.00456883
0.00497579
0.00645566
0.00556282
0.00573441
0.00527958
0.00509918
0.00480327
0.00465838
0.00446375
0.00437643
0.00432583
0.0043165
0.00502583
0.00495144
0.00455715
0.004406
0.00424818
0.00419282
0.00416846
0.00413635
0.00405479
0.0039436
0.00453057
0.00432096
0.00402356
0.00392765
0.00390904
0.00400946
0.0042425
0.00437047
0.0044794
0.00452543
0.00434442
0.00390578
0.00368811
0.00363267
0.00367848
0.00395566
0.00427177
0.00461635
0.00481806
0.00491303
0.0044532
0.00376235
0.00347739
0.00338173
0.00337677
0.00367496
0.00413812
0.00477114
0.00506526
0.00515169
0.00488265
0.0039048
0.00348366
0.00322083
0.00314127
0.00327748
0.00379171
0.00470387
0.0051598
0.00524637
0.00570883
0.00440612
0.00367219
0.00330311
0.00310034
0.00303698
0.00329015
0.00386501
0.00487809
0.00519899
0.00662924
0.00513438
0.00413609
0.00366176
0.00345881
0.00327559
0.0032388
0.00351361
0.00419926
0.005197
0.00721231
0.0059342
0.00509311
0.00452702
0.00450938
0.00426672
0.00391556
0.00392394
0.00411147
0.00511418
0.00761134
0.00672247
0.00590909
0.00592249
0.00610915
0.00543067
0.00495466
0.00498602
0.00516833
0.0055536
0.00570296
0.0059246
0.00593836
0.00585048
0.00574894
0.00561094
0.00549629
0.00539677
0.00535271
0.00534707
0.00477045
0.00490844
0.00492706
0.00491787
0.00486325
0.00483378
0.00475501
0.00468943
0.00458423
0.00449889
0.00429688
0.00425483
0.00423391
0.00423805
0.00429288
0.00438211
0.00442389
0.00443965
0.00444025
0.00437945
0.00381978
0.00362399
0.00357506
0.00357176
0.00366762
0.00391734
0.00411446
0.00429972
0.00439477
0.00442113
0.00384129
0.00330122
0.00310222
0.00303006
0.00301741
0.00324646
0.00362051
0.00406568
0.004388
0.00449869
0.00409055
0.00346936
0.00301156
0.00274514
0.00266744
0.00269721
0.00290979
0.00337009
0.00404704
0.00458995
0.00512414
0.00396471
0.00321703
0.00283877
0.00263424
0.00262003
0.00272382
0.00306126
0.0036382
0.00459534
0.00598535
0.00489781
0.0036891
0.00311868
0.00290913
0.00293503
0.00301884
0.00321775
0.00357747
0.0045207
0.00631424
0.00558009
0.00447435
0.00366664
0.00372103
0.00390302
0.00389682
0.00396802
0.00417416
0.00478291
0.00643418
0.00562942
0.00471105
0.00456395
0.00510803
0.00517234
0.00493611
0.00494277
0.0049638
0.00512403
0.00740266
0.00825049
0.00853399
0.00868752
0.00870762
0.00842356
0.00810647
0.00763045
0.00736565
0.00700514
0.00608329
0.00634256
0.00641271
0.00642719
0.00633071
0.00613404
0.00582478
0.00549213
0.00527159
0.00497864
0.00555672
0.00568245
0.00570641
0.00563898
0.00549873
0.00534885
0.00511453
0.0048614
0.00465114
0.00435863
0.00476165
0.00478923
0.00482271
0.00484029
0.00483562
0.00478348
0.00467339
0.00454243
0.0043464
0.0041135
0.00422452
0.00407046
0.00403501
0.00402968
0.00405357
0.00409626
0.00411172
0.00407357
0.00392856
0.00387309
0.00400607
0.0037104
0.00343777
0.00331471
0.00325993
0.00324208
0.00332208
0.00344724
0.00340467
0.00347199
0.00446435
0.003927
0.00339618
0.00306604
0.00287501
0.00279891
0.00281015
0.00289609
0.00293959
0.00316843
0.00545484
0.00445893
0.00365705
0.00317384
0.00292431
0.00282411
0.00279249
0.00280569
0.00286854
0.00310787
0.0059493
0.00549313
0.00431717
0.00347196
0.00318007
0.00316217
0.00325294
0.00336233
0.00348568
0.0038257
0.00596832
0.00572451
0.00467002
0.00380818
0.00382774
0.00402346
0.00407475
0.00411754
0.0041188
0.00430121
0.00480869
0.00468533
0.00381319
0.00343877
0.00327315
0.00323419
0.00339293
0.00407812
0.00612397
0.00968423
0.00641743
0.00536915
0.00462825
0.00420991
0.0040819
0.00437371
0.00562207
0.00720563
0.00791688
0.00805643
0.00714715
0.00695225
0.00637616
0.00611528
0.00610071
0.00671769
0.00699242
0.0071011
0.00659677
0.00485022
0.0072304
0.00730403
0.00716829
0.00700058
0.0069176
0.0068997
0.00675983
0.00605153
0.00455254
0.00395415
0.00670954
0.00712899
0.00712179
0.00698437
0.00685052
0.0066174
0.00587696
0.00459264
0.00396007
0.00364711
0.00588418
0.00658072
0.00674428
0.00673292
0.0065214
0.00599635
0.00507852
0.00415463
0.003761
0.00357865
0.00564004
0.00577816
0.00615353
0.00617427
0.00599649
0.00542293
0.00450593
0.00372772
0.00347231
0.00340113
0.00588042
0.00530247
0.00539861
0.00559372
0.00558942
0.00527862
0.00455634
0.00373253
0.00334202
0.0032758
0.00647344
0.00546938
0.00502733
0.00493684
0.00494193
0.00488448
0.00463273
0.00394948
0.00349494
0.00349774
0.00618201
0.00587551
0.00484375
0.00450463
0.00457289
0.00469548
0.00465244
0.00442597
0.00396598
0.00374256
0.0100908
0.00989182
0.00880646
0.0079656
0.00767919
0.00811006
0.00749511
0.00579726
0.00449962
0.00368955
0.00858412
0.00795477
0.00741032
0.00693124
0.00672256
0.00683459
0.00748105
0.00732183
0.00662291
0.00526045
0.00774582
0.00739437
0.00706915
0.00671877
0.00657581
0.00667744
0.00702557
0.00748146
0.00715225
0.00584847
0.00699984
0.00694467
0.0067079
0.0064274
0.0064742
0.00664422
0.00695777
0.00731414
0.0068717
0.00555284
0.00676939
0.00673835
0.00642255
0.00622755
0.00628963
0.00649749
0.00674518
0.00681007
0.00614418
0.0051061
0.0066814
0.00647201
0.00602849
0.00597629
0.0061257
0.00625606
0.00634631
0.00629209
0.00560019
0.00498186
0.00660877
0.00621427
0.00583869
0.0057161
0.00584648
0.00594505
0.00600808
0.00590795
0.00542505
0.00492537
0.00638557
0.00609032
0.00571024
0.00542336
0.0054692
0.00558876
0.00576325
0.00575526
0.00536038
0.00483716
0.00597984
0.00603227
0.00566675
0.00525737
0.00510849
0.00516969
0.00536996
0.00548298
0.00514733
0.00482131
0.005426
0.00585592
0.00555738
0.00518479
0.00500902
0.00496446
0.00512183
0.00536721
0.00514194
0.00475941
0.0116274
0.0105575
0.00991386
0.00896992
0.00776487
0.00695604
0.0066682
0.00665213
0.00670874
0.00694836
0.00895264
0.00837986
0.00802173
0.00743099
0.00669531
0.00624725
0.00604678
0.00605851
0.00616016
0.00614046
0.00782388
0.00766671
0.00740389
0.00682619
0.0062103
0.00579747
0.00556205
0.00559118
0.00575086
0.00577432
0.00742042
0.00733465
0.00694207
0.0061141
0.0055314
0.00519926
0.00520579
0.00530757
0.0055248
0.00553895
0.00725903
0.00707604
0.00630605
0.00555673
0.00511453
0.00499382
0.00507155
0.00526034
0.00545143
0.00542909
0.00709055
0.00674212
0.00583466
0.00521491
0.00489615
0.00490713
0.00503395
0.0052588
0.00532633
0.00529614
0.00685856
0.0064795
0.00561308
0.0050373
0.00479403
0.00483907
0.00506185
0.00526278
0.00525066
0.0051616
0.00658148
0.00633555
0.00551502
0.00497038
0.00475131
0.00479734
0.00510791
0.00529808
0.00525291
0.0051531
0.00633042
0.0062148
0.00547691
0.0049735
0.00478094
0.00481097
0.00514146
0.00537187
0.00541065
0.00543103
0.00611713
0.00603459
0.00542638
0.00506326
0.00495267
0.00511507
0.00535057
0.00542784
0.00540965
0.00517484
0.00793332
0.00738944
0.00657522
0.00601991
0.00568843
0.00534597
0.00511812
0.00521396
0.00567629
0.00583826
0.00800685
0.00728535
0.00629938
0.00556577
0.00508597
0.00474429
0.00464808
0.00470824
0.00496367
0.00513409
0.00750763
0.00668202
0.00568938
0.00493078
0.00436057
0.00403617
0.00404485
0.00415572
0.00443939
0.00459717
0.00730492
0.00641092
0.00538736
0.00445264
0.00393652
0.00373796
0.00375307
0.00386085
0.00413953
0.00438758
0.0069788
0.0058999
0.0049458
0.00414933
0.003776
0.00363839
0.00366593
0.00378497
0.00402783
0.00439123
0.00671105
0.00565775
0.00476042
0.00405222
0.0037322
0.00362411
0.00366188
0.00379617
0.00404268
0.0044017
0.00638511
0.00540846
0.00467907
0.00403746
0.00379105
0.00374225
0.00376277
0.00387253
0.00410951
0.00446883
0.00620162
0.00529215
0.00466247
0.00419222
0.00405405
0.00404136
0.00404238
0.00408193
0.00418731
0.00453643
0.00607777
0.00519383
0.00471401
0.00440167
0.00433103
0.00443737
0.0044785
0.00449868
0.00457719
0.00474994
0.00602419
0.00514451
0.00473937
0.00457543
0.00456745
0.00465657
0.00467583
0.00460231
0.00450599
0.00435578
0.00661066
0.00532486
0.00471007
0.00429322
0.00407224
0.00386403
0.00380903
0.0039932
0.00455582
0.00534028
0.00687493
0.00544714
0.00463129
0.00410273
0.00380445
0.00359354
0.0035214
0.00358312
0.00388385
0.00397267
0.0066227
0.00515546
0.00434799
0.00387723
0.00363281
0.00344701
0.00334102
0.00335786
0.00348948
0.00357815
0.00648848
0.00502894
0.0042336
0.00378594
0.00357183
0.00339995
0.00327878
0.00324811
0.00329175
0.00340666
0.00616311
0.00478078
0.00410132
0.00374979
0.00356059
0.0033992
0.00327508
0.00321604
0.00323965
0.00339708
0.00600443
0.00466503
0.00404374
0.00374464
0.00362194
0.0035006
0.0033557
0.0032481
0.00325981
0.00348714
0.00573553
0.00449369
0.00400638
0.00380505
0.00374908
0.00366246
0.00352018
0.00337386
0.0033416
0.00362033
0.00560702
0.00441567
0.003994
0.00390234
0.00390172
0.00386381
0.00373991
0.00360849
0.00350623
0.00360926
0.00553916
0.00433689
0.00398986
0.00398208
0.00404146
0.00403399
0.00390875
0.00381491
0.00386275
0.00388793
0.00552442
0.00428804
0.00398524
0.00405797
0.00413319
0.00411607
0.00397206
0.003872
0.00377447
0.00354779
0.00799374
0.00750509
0.00702044
0.00630877
0.00585497
0.005522
0.00538564
0.00525237
0.0049786
0.00419959
0.00813637
0.00762407
0.00715946
0.00629974
0.00574218
0.00540786
0.00508359
0.00489934
0.00446339
0.00423948
0.00808674
0.00763561
0.00726831
0.00639062
0.00573488
0.00536019
0.00492758
0.0045391
0.0041565
0.00363931
0.00786788
0.00754292
0.00735583
0.00667982
0.00591111
0.00536145
0.00477728
0.00426242
0.00377658
0.00326559
0.00766857
0.00730029
0.00737754
0.00686065
0.00609628
0.00545653
0.00471998
0.00413754
0.00362918
0.00313209
0.00756749
0.00693108
0.00734324
0.00701872
0.00625067
0.00564161
0.00475735
0.00410873
0.00359297
0.00311181
0.0075479
0.00638219
0.00711609
0.00709055
0.00644284
0.00588093
0.00506813
0.00428295
0.00380329
0.00326625
0.00790708
0.00573127
0.00672491
0.0071044
0.006547
0.00616275
0.00540337
0.00458797
0.00406367
0.00367064
0.00839343
0.00528819
0.00599125
0.0069553
0.00658564
0.00630102
0.00596241
0.00513087
0.00446341
0.00414718
0.00857882
0.00502369
0.0050431
0.00655305
0.0065491
0.00633335
0.00621842
0.00603789
0.00571162
0.00532845
0.00942794
0.00692079
0.00620691
0.0059161
0.00565113
0.00539517
0.00500646
0.00456925
0.00448673
0.00479321
0.00927823
0.00711184
0.00623423
0.00589922
0.00559005
0.00530792
0.00486789
0.00440669
0.00438816
0.00449256
0.00957973
0.00706113
0.00603717
0.00580624
0.00557478
0.00529091
0.00481864
0.00433191
0.0041562
0.00410513
0.00969189
0.00695613
0.00589436
0.00576259
0.00558866
0.00530164
0.0048004
0.00424652
0.00395031
0.00394201
0.00967189
0.00664672
0.0056326
0.00563391
0.00562723
0.00537854
0.0048031
0.00419648
0.00380554
0.00366179
0.00917876
0.00628479
0.00542464
0.00555587
0.00569078
0.00551492
0.00489163
0.00417588
0.00371543
0.00339491
0.00893155
0.00586793
0.00517392
0.00542112
0.00572639
0.00561756
0.00504355
0.00419035
0.00371629
0.00340671
0.00857745
0.00558852
0.0049435
0.00531292
0.00572713
0.00564846
0.00515261
0.00432603
0.00390656
0.00368747
0.00846027
0.00540639
0.0046961
0.0051447
0.00565444
0.00563421
0.00517822
0.00438207
0.00398997
0.00371319
0.00845448
0.00530993
0.00450887
0.00500195
0.00544524
0.00548445
0.00515054
0.00443589
0.00397224
0.00369431
0.00704307
0.00572195
0.00520932
0.00498525
0.00487871
0.00483623
0.00500532
0.00561372
0.00591419
0.00603362
0.00676403
0.00589976
0.00553303
0.00532345
0.00522631
0.00519706
0.00538827
0.00580196
0.0060365
0.00634879
0.00717781
0.00619415
0.00583971
0.00566589
0.00559852
0.00562875
0.00585721
0.00619585
0.0063828
0.00652736
0.00781083
0.00657266
0.00615829
0.00598106
0.0059223
0.00602003
0.00620146
0.00631622
0.00634336
0.0059984
0.00851392
0.00693592
0.00643324
0.00623151
0.00616444
0.00621069
0.00625526
0.00626948
0.00604559
0.00523175
0.00901292
0.00736815
0.00671026
0.00643649
0.00631239
0.00626057
0.00623193
0.00611299
0.00557816
0.00504072
0.00935359
0.00778666
0.0069795
0.00665912
0.00639583
0.00627075
0.00616129
0.00581963
0.00528093
0.00495341
0.00933982
0.00839418
0.00727243
0.00684546
0.00656779
0.00629277
0.00601103
0.00562611
0.00512029
0.00471752
0.00909851
0.00873868
0.00775777
0.00706412
0.00679326
0.00636601
0.00602933
0.00551148
0.00493661
0.00470496
0.00867617
0.00879651
0.00803749
0.00720607
0.00693813
0.00657673
0.00618492
0.00557807
0.00496884
0.00500279
0.00374312
0.00372162
0.00321834
0.00300181
0.00280926
0.00281357
0.00302529
0.00333912
0.00353195
0.00384121
0.00394413
0.00374735
0.00322335
0.00302218
0.00291673
0.00295616
0.00318935
0.00350438
0.00370759
0.00421907
0.00426447
0.00380832
0.00337482
0.00318984
0.00313153
0.00315066
0.00340596
0.00366701
0.00410796
0.0044303
0.00455297
0.00400546
0.00362126
0.00344466
0.0033704
0.00336172
0.00361229
0.00404215
0.00431118
0.0043245
0.00475136
0.00424381
0.0039039
0.00373828
0.00366065
0.0037046
0.00404501
0.00428019
0.00434614
0.00401143
0.00495151
0.00438167
0.00412807
0.00404013
0.00400934
0.00408269
0.00430081
0.00440295
0.00431575
0.00366513
0.00504685
0.00459175
0.00438405
0.00430874
0.00427474
0.00436563
0.00447732
0.00446979
0.00424012
0.00357336
0.00516467
0.00476885
0.00457002
0.0045433
0.00452325
0.00462737
0.00465839
0.00456109
0.00425801
0.00358897
0.00538844
0.00521426
0.00493915
0.00482754
0.00478277
0.00477352
0.00479716
0.0046711
0.0043317
0.00362587
0.00555233
0.00534771
0.00513146
0.00508188
0.00505124
0.00500603
0.00498951
0.00489469
0.00450436
0.00376305
0.00127671
0.0012972
0.00138907
0.00177351
0.00222718
0.00233384
0.00269149
0.00238498
0.00141695
0.00121696
0.0013307
0.00137691
0.00154948
0.00191652
0.00225606
0.00246916
0.00273081
0.00249399
0.00170642
0.00128474
0.00164108
0.00168123
0.00182735
0.0021403
0.00231779
0.00245809
0.0026839
0.00247668
0.00175021
0.00129096
0.00185231
0.00204778
0.0021693
0.00223872
0.00230178
0.00239506
0.00242832
0.00223186
0.00181494
0.00138554
0.00170768
0.00215892
0.00216143
0.00217586
0.00216876
0.00213968
0.00203626
0.00186719
0.00182836
0.00153573
0.00173015
0.00206657
0.00197669
0.00194113
0.00192281
0.00186726
0.00182503
0.00181386
0.00182706
0.00148768
0.00169399
0.00212897
0.00206006
0.00204329
0.00198494
0.00195021
0.00188216
0.0018239
0.00160103
0.00143706
0.00162577
0.00202453
0.00204019
0.00208404
0.00203445
0.00196775
0.00185335
0.00171176
0.00147883
0.00140951
0.00153709
0.00195696
0.00188895
0.00189317
0.00197403
0.00197841
0.00189616
0.00169945
0.00146625
0.00139622
0.00151175
0.0017552
0.00177404
0.00177309
0.00185058
0.00191692
0.00185162
0.00163838
0.00146261
0.00141118
0.00103999
0.00107754
0.00108434
0.00108082
0.00103416
0.000893743
0.000782836
0.000742936
0.000732252
0.000730569
0.00105437
0.00107408
0.0010742
0.00104157
0.000941062
0.000810136
0.000758126
0.0007457
0.000755897
0.000726223
0.00105835
0.00106912
0.0010615
0.00100116
0.000881191
0.000780706
0.000749436
0.000742008
0.000729216
0.000722581
0.0010564
0.00105958
0.00103557
0.00096562
0.000855191
0.000780706
0.00074894
0.000741744
0.000729225
0.000734812
0.0010506
0.00105036
0.00101951
0.000953253
0.000859862
0.000790821
0.000763909
0.000744093
0.00074797
0.000764148
0.00104392
0.0010379
0.000998324
0.000945001
0.000875969
0.000819691
0.000783851
0.000785584
0.000793122
0.000786611
0.00103067
0.00102004
0.000983532
0.000942016
0.000901041
0.000878872
0.000845494
0.000834227
0.000809162
0.00078504
0.00102079
0.00100311
0.000946802
0.00080673
0.000823981
0.000845443
0.000841658
0.000832285
0.000766463
0.000751141
0.00100651
0.000906064
0.000766674
0.000740114
0.00074087
0.000771909
0.000787979
0.0007762
0.000741232
0.000728615
0.000976026
0.000862447
0.000743693
0.000746248
0.00074404
0.000771324
0.000766672
0.000704668
0.000657911
0.000620486
0.00136708
0.0013846
0.00138703
0.00137805
0.0013488
0.00128136
0.00116647
0.0010274
0.000905467
0.000851509
0.00134262
0.00134305
0.00131911
0.00127256
0.00119502
0.00108516
0.000957321
0.000856194
0.000798593
0.000771841
0.0012739
0.0012406
0.00117802
0.00109222
0.000995515
0.000882004
0.00080861
0.000751681
0.000729022
0.000723807
0.00112941
0.0010969
0.000977664
0.00091556
0.000811415
0.000755448
0.000696192
0.000671717
0.000666268
0.000696111
0.000959939
0.00090085
0.000802751
0.000757686
0.000681776
0.000648161
0.000617248
0.000609491
0.000615843
0.000639794
0.000820551
0.000760527
0.000695271
0.000662668
0.000609295
0.000587916
0.000561504
0.000561064
0.00057662
0.000605194
0.000720098
0.000672093
0.000628712
0.000596794
0.000564808
0.000548479
0.000533066
0.000533519
0.000555108
0.00057898
0.000654247
0.000629109
0.000601424
0.000587093
0.000580383
0.000534922
0.000524882
0.000516904
0.000536949
0.000555452
0.000644201
0.000621111
0.000611695
0.00062057
0.000612307
0.000541506
0.000515819
0.000516303
0.00053153
0.000533285
0.000666044
0.000626756
0.00062303
0.000649027
0.000625096
0.000543002
0.000518252
0.000516051
0.00051908
0.000450386
0.000681567
0.000595089
0.00057924
0.000575554
0.00058012
0.000609669
0.000647948
0.000676933
0.000701022
0.000744416
0.000690572
0.000596058
0.000570103
0.000562361
0.000568087
0.000596748
0.000622782
0.000651553
0.00069176
0.00075452
0.000735384
0.00061753
0.000576808
0.000560321
0.000560275
0.000577387
0.000600868
0.000634352
0.000681553
0.000747625
0.000875948
0.000691466
0.000619279
0.000581934
0.000567993
0.000569064
0.000582455
0.000617442
0.000652939
0.000677095
0.0011249
0.000911768
0.000755404
0.00066113
0.000616032
0.000578799
0.000565165
0.000592873
0.00061046
0.000603074
0.00127345
0.00113918
0.00100197
0.000852101
0.000710792
0.00060939
0.000554768
0.000553282
0.000555766
0.000524865
0.00132217
0.00124034
0.00116226
0.00103235
0.000844522
0.000680708
0.000559603
0.000512706
0.000496057
0.000466284
0.00131673
0.00125269
0.00119796
0.00112727
0.0009831
0.000764995
0.000597136
0.000501086
0.00046209
0.000440684
0.00127172
0.00124019
0.00119494
0.00114428
0.00106332
0.00087875
0.000661015
0.000516947
0.000454727
0.000432593
0.00112463
0.00115962
0.00115439
0.0011286
0.00107593
0.000960256
0.000738284
0.000558958
0.000461
0.000430941
0.00262315
0.00265413
0.00276276
0.00302559
0.00321934
0.0034299
0.00380859
0.00427928
0.00477118
0.00443544
0.00267316
0.00260669
0.00260542
0.00269115
0.00289049
0.00312567
0.003484
0.00382521
0.00435573
0.00430438
0.00298844
0.00269772
0.00259846
0.00259786
0.0026547
0.00278838
0.00304627
0.00340899
0.00391294
0.00424182
0.00353274
0.00304389
0.00270419
0.00261482
0.00264655
0.00274399
0.00295954
0.0033143
0.00381467
0.00422579
0.00394261
0.00343502
0.00299146
0.00277354
0.00276858
0.00286272
0.00309761
0.00343291
0.00390065
0.00424418
0.00490378
0.00425566
0.00367273
0.00330541
0.00322753
0.00332584
0.00359782
0.0039125
0.00420283
0.00432528
0.00607782
0.00531547
0.00472937
0.00442575
0.00430997
0.00436299
0.00447753
0.00452897
0.00450633
0.00440816
0.00585173
0.00543583
0.00519287
0.00500024
0.00491729
0.00485575
0.00476923
0.00465295
0.00451402
0.00433976
0.0048994
0.00486342
0.00486642
0.00479175
0.00473807
0.00467213
0.0045813
0.00446523
0.00431119
0.00409438
0.00409223
0.00429599
0.00436402
0.0043519
0.00432939
0.00425503
0.00412974
0.00399395
0.00379796
0.00351835
0.00229643
0.0023077
0.00234884
0.00245751
0.00262892
0.00274376
0.00288537
0.00313514
0.00348697
0.00392572
0.00232831
0.00230307
0.00230555
0.00233425
0.00243453
0.00257379
0.00273938
0.00295524
0.00327774
0.00354539
0.00253055
0.00237528
0.00231503
0.00231386
0.00233221
0.00239057
0.00250222
0.00265487
0.00293359
0.00321286
0.00289616
0.0026414
0.00242122
0.00233941
0.00233228
0.00235382
0.00241752
0.0025319
0.00274151
0.0030442
0.0031297
0.00290729
0.0026552
0.00247302
0.00238999
0.00238897
0.0024395
0.00254677
0.00275383
0.00302017
0.00360093
0.00339828
0.00309344
0.0028316
0.00264113
0.00256723
0.00259907
0.00268637
0.00286279
0.00308085
0.00470348
0.00444677
0.00404235
0.00363849
0.00331041
0.00313244
0.00308163
0.00311385
0.00318477
0.00329799
0.00502838
0.00475796
0.00443891
0.00413281
0.00390912
0.00375282
0.00364852
0.00357735
0.00355865
0.00351029
0.0046121
0.00452427
0.00437599
0.00415689
0.00400913
0.00391198
0.00381754
0.00372683
0.00364844
0.00357205
0.00366077
0.00375675
0.00388319
0.00389891
0.00385648
0.00379251
0.00372144
0.00366052
0.00356096
0.00343497
0.00204747
0.00207156
0.00210939
0.0021651
0.00227414
0.00237916
0.00244952
0.00257391
0.00270228
0.00303593
0.00206458
0.00206852
0.00208505
0.00211465
0.00216423
0.00226189
0.00234103
0.00246722
0.00262765
0.00282528
0.00219924
0.00212534
0.00210355
0.00211315
0.00213629
0.0021742
0.00222292
0.00229789
0.00246592
0.00256547
0.00248816
0.00234057
0.00220835
0.00215235
0.00214771
0.00216234
0.00218584
0.00222559
0.00231782
0.00241266
0.00261809
0.00251791
0.00238989
0.0022817
0.00222434
0.00219779
0.00220149
0.00222795
0.0022942
0.00239366
0.0028576
0.00281085
0.0027062
0.00258005
0.0024823
0.0023875
0.00231318
0.00230105
0.00234134
0.00241978
0.00359904
0.00357203
0.00347633
0.00330156
0.00305357
0.00282179
0.0026508
0.00255737
0.00253073
0.00254215
0.00397448
0.00392886
0.00381849