/*--------------------------------*- C++ -*----------------------------------*\
  =========                 |
  \\      /  F ield         | OpenFOAM: The Open Source CFD Toolbox
   \\    /   O peration     | Website:  https://openfoam.org
    \\  /    A nd           | Version:  9
     \\/     M anipulation  |
\*---------------------------------------------------------------------------*/
FoamFile
{
    format      ascii;
    class       volScalarField;
    location    "80";
    object      f5.gas;
}
// * * * * * * * * * * * * * * * * * * * * * * * * * * * * * * * * * * * * * //

dimensions      [0 0 0 0 0 0 0];

internalField   nonuniform List<scalar> 
137980
(
0.00333808
0.00332849
0.00345321
0.00372707
0.00405204
0.00439011
0.00476427
0.005357
0.0059604
0.00728389
0.00327555
0.00328012
0.00346359
0.003789
0.00418186
0.0046016
0.00506204
0.00572014
0.00654476
0.00732913
0.00321795
0.00322703
0.00343049
0.0037981
0.00423523
0.00472267
0.00525755
0.00594609
0.00688166
0.0073627
0.00313447
0.00315116
0.00335591
0.00372544
0.00419337
0.00474962
0.00533788
0.00604064
0.00683974
0.00730311
0.00304321
0.00306291
0.0032449
0.00358358
0.00403944
0.00464511
0.00528586
0.00596778
0.00669182
0.00706431
0.00298936
0.00299137
0.00311601
0.00339358
0.00378378
0.00434783
0.00505507
0.00575452
0.00642502
0.00675427
0.00300076
0.00297697
0.00302407
0.00319697
0.00349583
0.00392249
0.00449562
0.00520285
0.00589131
0.00633196
0.00315045
0.0030211
0.00300525
0.00307038
0.00325231
0.0035491
0.00393514
0.00439695
0.00485059
0.00528243
0.00341388
0.00317936
0.00305112
0.0030471
0.00310715
0.00330188
0.0035899
0.00395224
0.00433945
0.00458825
0.00363149
0.00339173
0.00319315
0.00308968
0.00307515
0.0031261
0.00331417
0.00364839
0.0040001
0.00441164
0.00336027
0.0033758
0.00354349
0.00388482
0.00431301
0.00484259
0.0057834
0.00621436
0.00587518
0.00781309
0.00330941
0.00334391
0.00358604
0.00399609
0.00451769
0.00522223
0.00641575
0.00689816
0.0067251
0.00822875
0.00325066
0.00330451
0.00359089
0.00404084
0.00462412
0.00548388
0.0069473
0.00773206
0.00774104
0.00887317
0.00316613
0.00323241
0.00351737
0.00398715
0.00464842
0.00561236
0.00723238
0.00869847
0.00903433
0.00941731
0.00308914
0.00314273
0.00339431
0.00383916
0.00451308
0.00552554
0.00705231
0.00911433
0.00994532
0.0101038
0.00306388
0.00308304
0.00324072
0.00362029
0.00422189
0.00519012
0.00663893
0.00882657
0.00999756
0.0103988
0.00314559
0.00309988
0.00313086
0.00336856
0.00384246
0.00459431
0.00580002
0.00769536
0.00957641
0.0102588
0.00350271
0.00322634
0.00315149
0.00319429
0.00348523
0.00400546
0.00480341
0.00600109
0.0077781
0.00938319
0.00408819
0.00356744
0.0032817
0.00317371
0.00325327
0.00358868
0.00411748
0.00486483
0.00578384
0.00680231
0.00422564
0.00384765
0.00351661
0.0032585
0.00317644
0.00329283
0.00360912
0.00415743
0.00490851
0.00509017
0.00337771
0.00342888
0.00365995
0.00408192
0.004672
0.00569924
0.00694965
0.00675662
0.00595905
0.00862305
0.00334091
0.00343638
0.00377308
0.00431661
0.00512836
0.00658343
0.00773566
0.00756199
0.00673219
0.00889876
0.00329564
0.00343037
0.00382157
0.00445455
0.00548065
0.00732396
0.00855637
0.00850081
0.00758892
0.0093722
0.00322713
0.00338522
0.00379927
0.00449415
0.00565212
0.00779816
0.00941138
0.00958229
0.00880015
0.00977268
0.00318138
0.00330788
0.00369019
0.00439077
0.00562227
0.00797883
0.0101278
0.0105014
0.00999981
0.0104289
0.00320582
0.00325192
0.00351294
0.0041378
0.00529641
0.00758003
0.0106151
0.011471
0.0109749
0.0110994
0.00341886
0.00329619
0.00337117
0.00379953
0.00477007
0.00662454
0.010306
0.0121942
0.0125033
0.0117284
0.00405683
0.00349332
0.00336199
0.00352827
0.00418741
0.00558168
0.00861019
0.0119266
0.0131337
0.0131397
0.00475822
0.00405766
0.00354501
0.00343313
0.00374452
0.00469978
0.00656244
0.0103633
0.0125111
0.0132334
0.00479846
0.00434938
0.00393228
0.0034467
0.00348916
0.0040448
0.0052913
0.00725681
0.00927776
0.00938607
0.00343483
0.00357521
0.00394236
0.00454559
0.00564242
0.00796783
0.00816493
0.00689044
0.00679728
0.0123874
0.0034436
0.00368994
0.00423594
0.00518935
0.00730148
0.00894885
0.00880005
0.0077413
0.00760578
0.0132232
0.00344238
0.0037615
0.00444064
0.00566882
0.00821813
0.00976779
0.00971458
0.00859885
0.00839957
0.0138084
0.00342587
0.00378327
0.0045258
0.00589781
0.00869101
0.010502
0.0106277
0.00949584
0.00907619
0.0139745
0.00342005
0.00373794
0.00446923
0.00590036
0.008797
0.0111014
0.0114588
0.0103571
0.00971741
0.0138173
0.00345848
0.00366836
0.00425457
0.00558488
0.00841049
0.0114756
0.0121772
0.01136
0.010491
0.0132231
0.00365614
0.00364759
0.00400944
0.00506699
0.00746803
0.0114311
0.0127738
0.0125967
0.0117328
0.0128963
0.0041877
0.00380606
0.00387018
0.00456369
0.00642649
0.0106556
0.0130624
0.0137027
0.0127389
0.0132594
0.00482544
0.00419499
0.00393183
0.0042017
0.00550871
0.0087834
0.0128464
0.0143927
0.0147266
0.0145008
0.0048745
0.0044547
0.00414012
0.00399112
0.00484082
0.00737695
0.0115428
0.0138013
0.014796
0.0139082
0.00372413
0.00413573
0.00513777
0.00660077
0.00788521
0.00798298
0.00691626
0.00666427
0.0115923
0.0176698
0.00394271
0.00473701
0.00672469
0.00846544
0.0089303
0.00847711
0.0078405
0.0081369
0.0148907
0.0174935
0.0041241
0.00523445
0.00775942
0.00950054
0.00989031
0.0093988
0.00910917
0.0106593
0.0156349
0.0157367
0.00425404
0.00547488
0.0082653
0.0103087
0.0107785
0.0105113
0.0104218
0.0124852
0.0157958
0.0144435
0.004308
0.00549217
0.00815357
0.0108197
0.0115555
0.0115912
0.0115719
0.0134905
0.0158552
0.0149866
0.0042826
0.0052525
0.00744762
0.0109051
0.0122582
0.0124777
0.0124217
0.0135692
0.0158227
0.0158818
0.00429456
0.00491123
0.00662307
0.0103537
0.0126367
0.0133168
0.0132236
0.013671
0.015605
0.0159736
0.00450433
0.00468355
0.00585197
0.00874283
0.0124486
0.0138955
0.0141127
0.013972
0.015159
0.0157243
0.00484432
0.0046851
0.00527581
0.00717435
0.0115279
0.0139021
0.0148908
0.0146678
0.0154386
0.0159361
0.00488577
0.0047592
0.00498516
0.00620628
0.00987913
0.0134899
0.0150816
0.0158723
0.0163367
0.0168827
0.00549219
0.00563933
0.00568378
0.00610358
0.00689018
0.00667625
0.0066127
0.0101723
0.0177223
0.0176416
0.00687287
0.00739044
0.00763186
0.00774083
0.00777285
0.00771653
0.00944464
0.0147533
0.0160843
0.010305
0.00808102
0.00864213
0.00887059
0.00895981
0.00907012
0.0101898
0.0132785
0.0143029
0.0114065
0.0068226
0.00887615
0.00973201
0.0101205
0.0103678
0.0110227
0.0126431
0.0133174
0.012802
0.00772849
0.00593503
0.0094129
0.0106608
0.0112887
0.0118394
0.0127932
0.0132021
0.0130786
0.0105632
0.00688472
0.00597523
0.00945374
0.011357
0.0125454
0.0131488
0.0134503
0.0133198
0.0123764
0.00932123
0.00702893
0.00657293
0.00911334
0.0114194
0.0132207
0.0138306
0.0138892
0.0134871
0.0122503
0.00934351
0.00764179
0.00836408
0.00805864
0.0110468
0.0131655
0.0142087
0.0143634
0.0137425
0.0125352
0.00980051
0.00865305
0.0109694
0.00717034
0.0100501
0.0127229
0.0141655
0.0146291
0.0142675
0.013225
0.0109163
0.00979525
0.0113865
0.00629454
0.00828966
0.0116378
0.0138198
0.0146908
0.0149846
0.0143415
0.013517
0.0127072
0.0132582
0.00566544
0.0061775
0.00642683
0.00707221
0.00801474
0.0109099
0.0148665
0.0154812
0.0119101
0.0106024
0.0071652
0.00738707
0.00777266
0.0089223
0.0117555
0.0137541
0.0141712
0.0113163
0.00786107
0.0068588
0.00841297
0.00856048
0.0095155
0.0115941
0.0131836
0.0134325
0.0119786
0.00774206
0.00628556
0.00570492
0.0097187
0.0101735
0.0116246
0.0127881
0.0130815
0.0125094
0.00890483
0.00644774
0.00571461
0.00545066
0.0111484
0.0118401
0.0128251
0.0130812
0.0127692
0.0107873
0.00727449
0.0060756
0.00580444
0.00579235
0.0123145
0.0129568
0.0132278
0.0130906
0.0121667
0.00926009
0.00683875
0.00624284
0.00634949
0.00772384
0.012998
0.0134445
0.013513
0.0131474
0.0117227
0.00857391
0.00699646
0.00671606
0.00807177
0.0105986
0.0132652
0.0137617
0.0137942
0.0133631
0.0118619
0.00873832
0.00736924
0.00722862
0.00898712
0.0117857
0.0130995
0.0137804
0.0139756
0.0136175
0.0123196
0.0093391
0.00792475
0.00762911
0.00910768
0.0116642
0.0127981
0.0137521
0.013979
0.0139561
0.0132591
0.010762
0.00927684
0.00853764
0.00948492
0.0115685
0.0113587
0.0115372
0.0108037
0.0104103
0.00955509
0.00886347
0.00822999
0.00775343
0.00752989
0.00746084
0.0102721
0.0101264
0.0093446
0.0089935
0.00821098
0.00749023
0.00687686
0.00649081
0.00620907
0.0060681
0.00979602
0.0094361
0.00882859
0.00844667
0.00746593
0.00681576
0.00635417
0.00606156
0.00593537
0.00579522
0.00986288
0.00945203
0.00879447
0.00794124
0.00689696
0.00638445
0.0061494
0.00611404
0.00623641
0.00640269
0.0101924
0.00967568
0.00885647
0.00765464
0.00675085
0.00639094
0.00636195
0.00707773
0.00788197
0.00822265
0.010848
0.0101377
0.00902473
0.00770983
0.00679546
0.00651019
0.00673103
0.00776597
0.00890907
0.00955233
0.0115443
0.0107265
0.00939903
0.00791051
0.0068813
0.0065371
0.00660063
0.00751709
0.00922161
0.0101056
0.0121839
0.0114287
0.0099941
0.00836501
0.00713875
0.00656958
0.00636014
0.00679554
0.00852335
0.0102826
0.0125138
0.0120778
0.0107793
0.00931287
0.00775923
0.00685013
0.00643577
0.00656209
0.00720227
0.00981533
0.0126231
0.0126936
0.0116239
0.0104606
0.00942105
0.00806453
0.00722549
0.00739706
0.0079931
0.00974185
0.00949373
0.00974196
0.00908488
0.0088154
0.00837307
0.00807178
0.00769007
0.00750162
0.00736719
0.00732324
0.00869988
0.00859902
0.00794273
0.00767073
0.00730071
0.0071607
0.00707038
0.00703237
0.00689912
0.00672558
0.00787457
0.00752232
0.00689752
0.00666539
0.00657264
0.00656524
0.00678733
0.00695757
0.00705873
0.00709849
0.00754379
0.00675872
0.00625283
0.00606251
0.00601135
0.00625162
0.00675879
0.00721792
0.00761679
0.00779456
0.00767933
0.00648794
0.00588273
0.00561489
0.00553698
0.00579306
0.00642541
0.00732507
0.00792399
0.00816203
0.00819818
0.00671888
0.00591297
0.00539522
0.00520362
0.00524498
0.00582776
0.00707467
0.00804909
0.00836292
0.00915905
0.00743468
0.00621686
0.00556245
0.00518476
0.005056
0.00527245
0.006011
0.00741905
0.00827845
0.0103146
0.00835703
0.00693744
0.00613705
0.00574417
0.00544921
0.00540819
0.00568162
0.00665305
0.00812393
0.0110446
0.00939937
0.00818511
0.00738039
0.00724026
0.00681749
0.00641554
0.00647742
0.00676321
0.0081108
0.0116363
0.0103063
0.0092003
0.00914752
0.00936242
0.00842346
0.00785622
0.00794022
0.00827597
0.00889251
0.00948408
0.00981642
0.00983217
0.00967249
0.00949052
0.0092608
0.00902634
0.00879063
0.00863383
0.00856563
0.00817175
0.00833258
0.00832424
0.0082639
0.00812247
0.00803274
0.00785209
0.00772595
0.00751345
0.00735995
0.00739552
0.00728389
0.00716582
0.00712677
0.0071172
0.00716108
0.00721023
0.0072188
0.00718878
0.00709153
0.00670023
0.00630643
0.00613678
0.00606449
0.00605067
0.00626853
0.00657935
0.00683928
0.00707607
0.00717299
0.00667273
0.0058655
0.00549172
0.00530849
0.00524112
0.00536607
0.00582588
0.00641709
0.00701925
0.00727709
0.00695877
0.00606924
0.00536801
0.00495446
0.00480906
0.00480048
0.00502642
0.00555574
0.00650437
0.00731721
0.00813961
0.00665343
0.00562642
0.00506099
0.00475211
0.00471397
0.00483204
0.0052168
0.00602312
0.00730918
0.00914717
0.00768832
0.00619815
0.00542474
0.0051075
0.00511122
0.00520492
0.00547516
0.00597596
0.00720506
0.00956046
0.00848479
0.00707853
0.00609463
0.00614086
0.00631027
0.00635944
0.00651662
0.00683255
0.00766663
0.0097282
0.00862698
0.00744204
0.00728481
0.00789238
0.00798713
0.00773142
0.00777278
0.00786022
0.00810707
0.0116143
0.0126183
0.0129662
0.0131536
0.0131748
0.0128239
0.0123894
0.0117494
0.0113341
0.010825
0.00997188
0.0103234
0.0104247
0.0104474
0.0103003
0.00998582
0.00953846
0.00902353
0.00864481
0.00820276
0.00926162
0.00943797
0.00947311
0.00940551
0.00920464
0.0089657
0.00860467
0.00819856
0.00784276
0.00739389
0.00811777
0.00813825
0.00814607
0.00814287
0.00807911
0.00797703
0.00781599
0.00764094
0.00738516
0.00701629
0.00733447
0.00706906
0.00695051
0.00687298
0.00682135
0.00680009
0.00680136
0.006778
0.00667351
0.00659615
0.00698806
0.00656291
0.00614885
0.00593285
0.00578407
0.00569349
0.00567757
0.00579022
0.00581283
0.00601284
0.00756185
0.00678466
0.00603517
0.00555252
0.00526526
0.00512404
0.00508837
0.00516944
0.00522967
0.00558853
0.00861679
0.00745903
0.00634852
0.00564759
0.00526721
0.00512999
0.00508878
0.00510026
0.00518065
0.00552854
0.0090127
0.00853141
0.00714568
0.00602399
0.00563091
0.00555741
0.00564172
0.00576501
0.00594097
0.00647661
0.00903833
0.0087241
0.007557
0.00648614
0.00651047
0.00663591
0.00661561
0.00664188
0.00666547
0.00702995
0.00851394
0.00833709
0.0069826
0.00637637
0.00610298
0.00604397
0.00637997
0.0074677
0.0105251
0.0140961
0.0106749
0.0093463
0.00832965
0.00769645
0.00749454
0.00799361
0.00973132
0.0113268
0.0119393
0.0119394
0.0115397
0.0112754
0.0106077
0.0103316
0.0103117
0.0108583
0.0110892
0.0111385
0.0101803
0.00789055
0.011622
0.0116829
0.0114193
0.0112405
0.0110918
0.0110241
0.0107482
0.00964857
0.00754269
0.00669355
0.0109567
0.0114163
0.0113747
0.0111632
0.0109761
0.0106135
0.00952871
0.00769749
0.00674686
0.00628085
0.00981889
0.0107131
0.0108652
0.0107907
0.0104353
0.00966414
0.00833731
0.00700757
0.00644548
0.00621071
0.00941247
0.00972014
0.0100536
0.0100476
0.00976264
0.00895898
0.00762519
0.00642743
0.00601823
0.00596193
0.00954656
0.00900651
0.00920502
0.00927303
0.00917441
0.00870551
0.00769867
0.00647993
0.00587401
0.00579708
0.00993692
0.00902638
0.00861653
0.00847836
0.00840282
0.00822178
0.0078074
0.00679634
0.00608129
0.0061251
0.00936378
0.00940545
0.00824858
0.00785122
0.00793449
0.00796451
0.007857
0.0074539
0.00670077
0.00652516
0.0152468
0.0149858
0.0134693
0.012207
0.0117168
0.0122549
0.0117261
0.00989275
0.00844888
0.00698419
0.0134513
0.0123847
0.0115492
0.0108037
0.0104514
0.0106166
0.0114607
0.0114092
0.0108093
0.00942253
0.0120727
0.0115508
0.0110143
0.0104509
0.0102035
0.0103799
0.0108537
0.0114564
0.011165
0.00989409
0.0110483
0.0109149
0.0104633
0.0100057
0.0100456
0.0103013
0.0107243
0.0111661
0.0107583
0.00947228
0.0107025
0.0106106
0.0100942
0.00979938
0.00985947
0.0101327
0.0103623
0.0104332
0.00978663
0.00888321
0.0105668
0.010217
0.00955925
0.0094775
0.00965901
0.00977702
0.00983132
0.00981562
0.00917147
0.00866659
0.0104608
0.00988398
0.00930147
0.00917821
0.0093199
0.00936407
0.00938101
0.00928859
0.00884873
0.00850289
0.0101108
0.00974003
0.00913556
0.00882517
0.00887273
0.00893034
0.00904117
0.00902369
0.00866256
0.00816555
0.00951112
0.00967767
0.00908471
0.00855681
0.00836226
0.00838704
0.00853044
0.0086395
0.00828908
0.00809772
0.00864713
0.00924082
0.00896013
0.00847434
0.00822768
0.00817954
0.00831516
0.008509
0.00825473
0.00810246
0.0171503
0.0159088
0.0150671
0.0136097
0.011837
0.0106958
0.0101346
0.010094
0.0101765
0.0104867
0.0137162
0.0128757
0.0122652
0.0112522
0.0101875
0.00942953
0.00912943
0.00915573
0.00932991
0.00934219
0.0121241
0.0118367
0.0113538
0.0103695
0.00947459
0.00876754
0.00840218
0.00845554
0.00869687
0.00887043
0.0115306
0.01135
0.0106249
0.00940402
0.00849063
0.00794108
0.00794729
0.0080965
0.00843351
0.00867167
0.0112964
0.0109573
0.00972857
0.00866063
0.0079497
0.00769062
0.00780109
0.00806013
0.00838143
0.00855775
0.0110785
0.0104632
0.00911957
0.00820273
0.00764653
0.00761482
0.00778126
0.00810796
0.0083689
0.00849186
0.0107246
0.010069
0.00884798
0.00798208
0.00753992
0.00756823
0.00783892
0.00815997
0.0083197
0.00837885
0.0103367
0.00987928
0.00873586
0.00789797
0.00751261
0.00754782
0.00791799
0.00826503
0.00832907
0.00833648
0.00994302
0.00970943
0.00869375
0.00795617
0.00763576
0.00762872
0.00799658
0.00841545
0.00859095
0.00877661
0.00960408
0.00941367
0.00858783
0.00809085
0.00791933
0.00806949
0.00839161
0.00862749
0.00868842
0.0085907
0.0123318
0.0114482
0.010146
0.00923341
0.00864122
0.0080521
0.00767881
0.00779732
0.00831752
0.00863596
0.0124378
0.0113739
0.00977975
0.00857344
0.00775168
0.00717177
0.00700852
0.00708038
0.00739139
0.0076134
0.0117718
0.0105274
0.00887028
0.00762337
0.00674473
0.00628618
0.00626953
0.00639024
0.00674159
0.00692355
0.0114995
0.01014
0.00841122
0.00695317
0.00620176
0.0059012
0.00590715
0.00602967
0.00637652
0.00667639
0.0110563
0.00938404
0.00777365
0.00654844
0.00598746
0.00577325
0.00579688
0.00593656
0.00624981
0.00670601
0.0106758
0.00901786
0.0075118
0.00642137
0.00593483
0.00576528
0.0057967
0.0059658
0.00626568
0.00677475
0.0101958
0.00864662
0.00740221
0.00641195
0.00606797
0.00598411
0.00596406
0.0060683
0.00636542
0.00693295
0.00989025
0.00847204
0.00738623
0.00667208
0.00646497
0.00644307
0.00638429
0.00634337
0.00652378
0.00707917
0.00966765
0.00831496
0.00749006
0.00700389
0.00691174
0.00709177
0.00710252
0.00708666
0.00714489
0.00745673
0.00956008
0.00822607
0.00755849
0.00729032
0.00734745
0.00758872
0.0076446
0.00753982
0.0073255
0.00722715
0.0110085
0.00920229
0.00814401
0.00735434
0.00690661
0.00647914
0.00625316
0.00647633
0.00717831
0.00818861
0.0113669
0.00938337
0.0080309
0.00703763
0.00644899
0.00606246
0.00586936
0.00593692
0.00629389
0.00641246
0.0109858
0.00890817
0.00753876
0.00662209
0.00613433
0.00579365
0.00559182
0.00560285
0.00575529
0.00588308
0.0107643
0.00869667
0.00733514
0.00644652
0.00601403
0.0057029
0.00549749
0.00542585
0.0054829
0.00562411
0.0102535
0.00826434
0.00708303
0.00636794
0.0059814
0.00569144
0.00548807
0.00537755
0.00540529
0.0056015
0.0099867
0.00805661
0.00696972
0.00634934
0.0060379
0.00582444
0.00561521
0.00543773
0.00544346
0.00573547
0.00951653
0.00771589
0.00686754
0.00641974
0.00626433
0.00610984
0.0058951
0.00564627
0.00557183
0.00592322
0.009283
0.00755384
0.0068235
0.00658788
0.00658706
0.00652647
0.00630767
0.00603249
0.00587323
0.00597828
0.00906388
0.00735013
0.00678104
0.00670314
0.00685674
0.00687128
0.00670537
0.00651062
0.00649685
0.0065528
0.0089802
0.00722482
0.00673016
0.00680571
0.00701521
0.00704416
0.00689613
0.00670146
0.00655471
0.00622084
0.0130501
0.0120737
0.0111293
0.0100873
0.00945318
0.0089439
0.00876275
0.00849996
0.00821105
0.0071813
0.013336
0.0123543
0.0113625
0.0100677
0.00928963
0.00877623
0.00832755
0.00809136
0.00752446
0.00728475
0.0133089
0.0124103
0.0115816
0.0101975
0.00927912
0.00869858
0.00810721
0.00758897
0.00709693
0.00635292
0.0129544
0.0123921
0.0118095
0.010626
0.00953951
0.00869542
0.0078893
0.00721528
0.0065316
0.00571244
0.0126331
0.0121119
0.011889
0.0109372
0.00981543
0.00879986
0.00780638
0.00703191
0.00629381
0.00543492
0.0122352
0.0116948
0.0119054
0.0112392
0.0100956
0.00907096
0.00782736
0.00698245
0.00622608
0.0053769
0.0120706
0.0109745
0.0116805
0.0113891
0.0104061
0.00941376
0.00819651
0.00716808
0.00649617
0.00563324
0.0120517
0.0100106
0.0111208
0.0114409
0.0105827
0.00983915
0.00863018
0.00750339
0.00684552
0.00623476
0.0124821
0.0092038
0.0102519
0.0112945
0.010651
0.0101203
0.00940222
0.00805404
0.00722479
0.00677694
0.012636
0.00872614
0.00888543
0.0107444
0.0106376
0.0102144
0.00990756
0.00945862
0.00861422
0.00811478
0.0135117
0.0112076
0.0103341
0.00986568
0.00939398
0.00895172
0.00835812
0.00771398
0.00754287
0.00783942
0.0133144
0.0114117
0.0104021
0.00988384
0.00933098
0.00880961
0.0081173
0.00746105
0.00736085
0.00747647
0.0134955
0.0113063
0.0102194
0.00979198
0.00931126
0.00877784
0.00802822
0.00734619
0.00705957
0.0069197
0.0135705
0.0111091
0.0100239
0.00974463
0.0093336
0.00878315
0.00798665
0.00721781
0.00676659
0.00660341
0.0134543
0.0107654
0.00969258
0.00959491
0.00939183
0.00887727
0.00797774
0.00713871
0.00661006
0.00625123
0.0129282
0.010306
0.00939242
0.00949081
0.00948607
0.00906535
0.00806368
0.00710151
0.00649832
0.00593688
0.0126494
0.00979995
0.00903914
0.00930589
0.00953749
0.00923551
0.00825995
0.00709641
0.00649705
0.00595797
0.0122483
0.00937561
0.00867173
0.00913179
0.00953792
0.00929145
0.00843941
0.00726018
0.00673802
0.00637655
0.0120962
0.00905658
0.00828867
0.0088633
0.00942181
0.00928617
0.00848704
0.00733402
0.00679644
0.00633571
0.0120639
0.00886238
0.00795656
0.00860399
0.00910488
0.00909361
0.00846046
0.00737811
0.0066529
0.00614221
0.0105694
0.00901513
0.00832767
0.00804423
0.00791611
0.00785674
0.00800959
0.00863283
0.00889477
0.00898804
0.0104196
0.00927789
0.00878936
0.00846596
0.008309
0.0082576
0.00839329
0.00887026
0.00910658
0.00956654
0.0111032
0.00973664
0.00920609
0.00889486
0.00875851
0.00872294
0.00896753
0.00942478
0.0097779
0.0100716
0.0120233
0.0103497
0.00968747
0.0093657
0.00924305
0.00931254
0.00959563
0.00977507
0.0098132
0.00951183
0.0129395
0.0109832
0.0101598
0.00979656
0.00966441
0.00968675
0.00977367
0.00977148
0.00955887
0.00836049
0.013443
0.0118008
0.0106645
0.0101833
0.00994164
0.00983044
0.00977784
0.00964525
0.00896344
0.00805383
0.0137569
0.0124544
0.0111447
0.0105966
0.0101359
0.00990978
0.00973925
0.00935023
0.00856267
0.0079356
0.0137311
0.0130343
0.0117736
0.0109429
0.0104994
0.00999609
0.00962621
0.00911212
0.00833159
0.00766112
0.0135711
0.0132711
0.0124069
0.0113757
0.010876
0.0101792
0.0096702
0.00896613
0.00806571
0.00766235
0.0132627
0.0133823
0.0126079
0.0115941
0.0111467
0.0105946
0.00993689
0.00907957
0.00812818
0.00807315
0.0062888
0.00635467
0.00561083
0.00529453
0.00502304
0.00505694
0.00537748
0.00589839
0.00625723
0.00676735
0.00669726
0.0063263
0.00557791
0.00532348
0.00519929
0.00531813
0.00567498
0.00615158
0.00661251
0.00748624
0.00719989
0.00640767
0.00580434
0.00558936
0.00554041
0.00562177
0.00596329
0.00649143
0.00732616
0.00772236
0.00768332
0.00677544
0.00625867
0.00603881
0.00595923
0.00597873
0.00644803
0.00721813
0.00756385
0.00737207
0.00799059
0.00720916
0.00676907
0.00656575
0.00646274
0.00662801
0.00722165
0.00751584
0.00753988
0.00669141
0.00824521
0.00750899
0.00717189
0.00707142
0.00708273
0.00726642
0.0075702
0.00770469
0.00744087
0.00618584
0.00836729
0.0078461
0.00759227
0.00754138
0.00752776
0.00770246
0.00785196
0.00778175
0.00722064
0.00607302
0.00850623
0.00813339
0.00792548
0.00791881
0.00793703
0.00809065
0.00808989
0.00788265
0.00724013
0.00609422
0.0087207
0.0087471
0.00849345
0.0083784
0.00833763
0.00832177
0.00827678
0.0080411
0.00735561
0.00615057
0.00900241
0.00898471
0.00879015
0.00878334
0.0087544
0.00869792
0.00861955
0.00840117
0.00765169
0.00635609
0.00278056
0.00282937
0.00305827
0.00387617
0.0046522
0.00487497
0.00541478
0.00477707
0.00306942
0.00266143
0.00285925
0.00296023
0.00335977
0.00411449
0.00467284
0.0050538
0.00538969
0.00491384
0.00359276
0.002822
0.00346877
0.00360309
0.00396288
0.00443159
0.00472345
0.00499082
0.00525511
0.004856
0.00361275
0.00282275
0.00381526
0.00430561
0.00440221
0.00450496
0.00464836
0.00480198
0.00479341
0.00436897
0.00367745
0.00295373
0.00349769
0.0043306
0.00431606
0.0043364
0.00430835
0.00423991
0.00403876
0.00373554
0.00367378
0.00317813
0.00350795
0.00409717
0.00391063
0.00384475
0.00381632
0.00370976
0.00363808
0.00364112
0.00366854
0.00308949
0.00343085
0.00418658
0.00404426
0.004002
0.00389763
0.00383376
0.00373354
0.00366674
0.00331654
0.00294241
0.0032864
0.00401435
0.0040422
0.0040776
0.00398802
0.00388664
0.00373078
0.00348557
0.00305496
0.00287617
0.00312514
0.00391506
0.00381432
0.00380475
0.00391169
0.00393175
0.00381911
0.003463
0.0030359
0.00287565
0.0030842
0.00357493
0.00360683
0.00359771
0.00371666
0.00386399
0.00375318
0.00336136
0.00304369
0.00291936
0.0023921
0.00248758
0.00250675
0.00250643
0.00241616
0.00213117
0.0018824
0.00179077
0.00176557
0.00176165
0.00242389
0.00248143
0.00248528
0.0024255
0.00222458
0.00194135
0.00182398
0.00179431
0.00180827
0.00174896
0.00243933
0.00247001
0.00245932
0.00234214
0.00209725
0.00187498
0.0018042
0.00178674
0.00175333
0.00174232
0.00243571
0.00244716
0.00240427
0.00226609
0.00204129
0.00187488
0.00180439
0.00178594
0.00176028
0.00177208
0.0024251
0.0024286
0.00237197
0.00223733
0.00205099
0.00189729
0.00183566
0.00179342
0.00180196
0.00183429
0.00240868
0.00240035
0.00232372
0.00221542
0.00208414
0.00196042
0.0018821
0.00188432
0.00189344
0.00187436
0.00237815
0.00235968
0.00228861
0.00219834
0.00212011
0.00207174
0.00200635
0.00198019
0.00192314
0.00185242
0.00235308
0.00232076
0.00220303
0.00190153
0.00193802
0.00199234
0.00198502
0.0019651
0.00181625
0.00178532
0.00232148
0.00211146
0.00181695
0.00176263
0.00176144
0.00182507
0.00185663
0.00183234
0.00176855
0.00174607
0.00224759
0.00201534
0.00177143
0.00177916
0.00176971
0.00182368
0.00181542
0.00169608
0.00161645
0.00154415
0.00293395
0.00299273
0.0030115
0.00301911
0.00299203
0.00292438
0.00276096
0.00247847
0.00217226
0.00202664
0.00290477
0.00292507
0.00291202
0.00286501
0.00276321
0.00256832
0.00229301
0.00206644
0.0019128
0.00184756
0.00280902
0.00278003
0.00268817
0.00254651
0.00235197
0.00212194
0.00193989
0.00181017
0.00175376
0.00174066
0.00259639
0.00249374
0.00232211
0.00214923
0.00197287
0.00181495
0.00169902
0.00164733
0.00163708
0.00168877
0.00221331
0.00211205
0.00191995
0.00182443
0.00167357
0.00160109
0.00154764
0.00153257
0.00154182
0.00158652
0.00191411
0.00181462
0.00167725
0.00161155
0.00151539
0.00147828
0.00143435
0.00143508
0.00146267
0.00150741
0.00168907
0.00157865
0.00148863
0.0014183
0.00137378
0.00135685
0.00135802
0.00137137
0.00141376
0.00143916
0.00152073
0.00145152
0.00139101
0.0013638
0.00135249
0.00131375
0.00132308
0.0013365
0.0013608
0.00137885
0.00147644
0.0014201
0.00139868
0.00140523
0.00139843
0.00131941
0.00130064
0.00132086
0.00134
0.0013398
0.00151876
0.00143045
0.00140856
0.00144027
0.00141814
0.00132069
0.00129482
0.00131487
0.00131622
0.00119078
0.00166944
0.00152773
0.00150265
0.00149451
0.00149991
0.00155132
0.00161823
0.00167228
0.00172345
0.00181289
0.00167402
0.00151932
0.00147444
0.00146156
0.00147495
0.00153053
0.00157393
0.00162778
0.00171149
0.001849
0.00172297
0.00154019
0.00147642
0.0014499
0.00145618
0.00149339
0.00153776
0.00160052
0.00169854
0.0018557
0.00188729
0.00162674
0.00152193
0.00146969
0.00145494
0.0014669
0.00150501
0.00157198
0.00164576
0.00172035
0.00217686
0.00188483
0.00167774
0.00155302
0.00149342
0.00146137
0.001466
0.00152151
0.00155885
0.0015527
0.00233138
0.0021431
0.00194582
0.00175402
0.00158494
0.00147674
0.00142187
0.00143729
0.00143834
0.00137976
0.00236742
0.00224291
0.00213006
0.00194295
0.00171835
0.00153451
0.00140245
0.00133908
0.00130893
0.00125086
0.00233837
0.0022458
0.00215445
0.00205263
0.00185652
0.00160842
0.00142027
0.00129012
0.00122939
0.00119388
0.00225119
0.002213
0.00214396
0.00206369
0.00194079
0.00171286
0.00146739
0.00128781
0.00120473
0.00117398
0.00202295
0.00207041
0.00206517
0.00203114
0.00195348
0.00179161
0.00153809
0.00132186
0.00120346
0.00116768
0.00433243
0.00440779
0.00455911
0.00485161
0.00505441
0.00528201
0.00574596
0.00640383
0.0073352
0.00689791
0.00441666
0.00443442
0.00450415
0.00468971
0.00494058
0.00521901
0.00556801
0.00614446
0.00714057
0.00689068
0.00479345
0.0045772
0.00455638
0.00464182
0.0048261
0.00509253
0.00544092
0.00603343
0.00700677
0.00689717
0.00542436
0.00500639
0.0047336
0.00472305
0.0048447
0.00511824
0.00548429
0.00611024
0.0070437
0.00692858
0.00593661
0.00550614
0.00511022
0.00499326
0.00507405
0.00532807
0.00582764
0.00643496
0.00715139
0.00695731
0.00707622
0.00653855
0.00602572
0.00576234
0.00582719
0.00611914
0.0066489
0.00715999
0.00722714
0.00699472
0.00854911
0.00781507
0.00740096
0.00723918
0.00726734
0.00742283
0.00753806
0.00744066
0.00721109
0.00688522
0.0084023
0.00807047
0.00792653
0.00777753
0.00766181
0.00750676
0.00740659
0.00723823
0.00699882
0.00666272
0.00718713
0.00717642
0.00727657
0.00727794
0.00726302
0.0071426
0.00696928
0.0067795
0.00655784
0.00629625
0.00605652
0.006348
0.00658009
0.00667514
0.00663491
0.00653499
0.00639801
0.00623731
0.00601235
0.00568452
0.00388427
0.00397542
0.00406289
0.00423124
0.00438773
0.00448847
0.00467468
0.00493231
0.00533607
0.00608793
0.00393206
0.0039736
0.00405497
0.00415801
0.00434423
0.0044694
0.0046551
0.00486272
0.0052522
0.00590252
0.0041936
0.00407318
0.00408707
0.00415344
0.00427376
0.00442689
0.00460116
0.00481006
0.00516734
0.00573683
0.00457918
0.00438116
0.00422558
0.00421534
0.00427786
0.00441106
0.00459735
0.00482608
0.00517194
0.00574198
0.00486401
0.00470615
0.00449737
0.00439415
0.00438058
0.00446079
0.00465235
0.00490998
0.00528866
0.00580792
0.00543391
0.00530413
0.00506117
0.00484674
0.00472982
0.00476187
0.00490318
0.00516173
0.00554721
0.00597404
0.00670433
0.00649103
0.00613255
0.0058183
0.00560345
0.00555485
0.00564311
0.00582204
0.00603484
0.00618124
0.00713107
0.00692483
0.00668103
0.00646774
0.00636543
0.00634556
0.00631469
0.00629982
0.00626115
0.00615674
0.0067906
0.00674266
0.0066741
0.00658491
0.00650234
0.00646022
0.00636783
0.00624966
0.00612992
0.00598363
0.00567692
0.00590214
0.00611723
0.00615158
0.00614461
0.00611856
0.00604646
0.00593067
0.00573825
0.005587
0.00368289
0.00375489
0.00386215
0.00396925
0.0040886
0.00417921
0.00425609
0.00436064
0.0044981
0.00487822
0.00367715
0.00370204
0.00378591
0.00389511
0.00400492
0.00412431
0.00421638
0.00433151
0.00446227
0.00478521
0.00380313
0.00376723
0.00380001
0.00388087
0.00399075
0.00410119
0.0041979
0.00432707
0.00445224
0.00471717
0.00411515
0.00401434
0.00392016
0.00393408
0.00399453
0.00410295
0.0042013
0.00432176
0.00445737
0.00470728
0.00426592
0.00422287
0.00414084
0.00408801
0.00409286
0.00413675
0.00422287
0.00433927
0.00449445
0.00473086
0.0045621
0.00456599
0.00451808
0.00444286
0.00438658
0.00435777
0.00436753
0.00444041
0.00459633
0.00480843
0.00538176
0.00541167
0.00534306
0.00521224
0.00503553
0.00490201
0.0048234
0.00482861
0.00489254
0.00498624
0.00585812
0.00583263
0.00576099
0.00563011
0.00547017
0.00536039
0.00528907
0.00524894
0.00522936
0.00521991
0.005796
0.00577396
0.00572557
0.00564341
0.00554757
0.00546946
0.00540255
0.00533569
0.00526338
0.00523091
0.0052831
0.00523238
0.00526006
0.0052843
0.00530954
0.00531546
0.0052932
0.00524554
0.00514064
0.00515048
0.00369164
0.00375179
0.00388915
0.00398005
0.00406649
0.00411632
0.00413827
0.00415825
0.00419466
0.00432682
0.0035486
0.00356745
0.00365486
0.00376266
0.00385855
0.00394234
0.00400453
0.00406248
0.00411261
0.00425946
0.0035861
0.00358554
0.00362573
0.00372121
0.00381736
0.00390273
0.00397039
0.00405052
0.00410802
0.00423815
0.00378218
0.00375636
0.00372719
0.00375601
0.00382836
0.00391488