/*--------------------------------*- C++ -*----------------------------------*\
  =========                 |
  \\      /  F ield         | OpenFOAM: The Open Source CFD Toolbox
   \\    /   O peration     | Website:  https://openfoam.org
    \\  /    A nd           | Version:  9
     \\/     M anipulation  |
\*---------------------------------------------------------------------------*/
FoamFile
{
    format      ascii;
    class       volScalarField;
    location    "80";
    object      f7.gas;
}
// * * * * * * * * * * * * * * * * * * * * * * * * * * * * * * * * * * * * * //

dimensions      [0 0 0 0 0 0 0];

internalField   nonuniform List<scalar> 
137980
(
0.00485404
0.0048361
0.00495349
0.00523571
0.0055812
0.00595306
0.00638657
0.00707798
0.00773369
0.00910032
0.00478454
0.00478591
0.00496955
0.00530743
0.00573262
0.00619293
0.00671938
0.0074592
0.00834814
0.00917427
0.00472181
0.00472842
0.00493586
0.00531998
0.00579551
0.00632797
0.00693288
0.00769709
0.00869356
0.00920001
0.00462717
0.00464244
0.00485465
0.00524358
0.00575549
0.00635933
0.00701767
0.0077957
0.00864822
0.00912845
0.00452021
0.0045393
0.00473122
0.00509094
0.00559359
0.00625156
0.00695985
0.00772063
0.00848692
0.00886955
0.00445141
0.00445355
0.00458969
0.00488643
0.00531894
0.00593891
0.00671181
0.00748809
0.0082057
0.00855376
0.00446038
0.0044337
0.0044873
0.0046746
0.00500575
0.00548
0.00611469
0.00689079
0.00763858
0.00810771
0.00462744
0.00448439
0.00446714
0.00453789
0.00473839
0.00506989
0.00550555
0.00602374
0.00652945
0.00699992
0.00492696
0.00466471
0.00452177
0.00451505
0.00457578
0.00479397
0.00511726
0.00552736
0.0059571
0.00622492
0.00518331
0.00491589
0.00468968
0.00456699
0.0045456
0.00459215
0.0048056
0.00517862
0.00558524
0.00601839
0.00486821
0.00487774
0.00504696
0.00540886
0.00588336
0.00647521
0.0075067
0.00799523
0.00766394
0.00967268
0.00481332
0.00484559
0.00509846
0.00554323
0.00611886
0.00688895
0.00817752
0.00869803
0.00855568
0.0100987
0.00475116
0.00480537
0.00510777
0.0055985
0.00623759
0.00716809
0.00872477
0.00955031
0.00958633
0.0107288
0.00465945
0.00472774
0.00503018
0.00554541
0.00626876
0.00730822
0.00902069
0.0105059
0.0108688
0.0112759
0.00457072
0.00462934
0.00489922
0.00538622
0.00612899
0.00722466
0.00885295
0.0109157
0.0117534
0.0119245
0.00454132
0.00456195
0.00473651
0.00515004
0.00581843
0.00687612
0.00841554
0.0106515
0.0117991
0.0121958
0.004638
0.00458374
0.00461674
0.00487922
0.00540621
0.00624315
0.00754763
0.00955089
0.0113917
0.0120568
0.00504098
0.00473247
0.00464369
0.00469023
0.0050149
0.00560177
0.00649169
0.0077838
0.00963197
0.0112026
0.00567122
0.0051096
0.00479619
0.00466721
0.00475618
0.00513544
0.00573584
0.00657102
0.00756094
0.00861094
0.00583268
0.00541641
0.00505653
0.00476479
0.00466774
0.0047934
0.00515405
0.00576591
0.00660583
0.00680081
0.00488699
0.00494029
0.00518742
0.00564329
0.00628513
0.00736881
0.0086598
0.00856493
0.00777217
0.0105633
0.00484914
0.00495397
0.00531919
0.00591134
0.0067878
0.00831477
0.00947023
0.00937298
0.00858463
0.0108254
0.00480384
0.0049536
0.00537783
0.00607024
0.00716895
0.00907994
0.0102891
0.010279
0.00944925
0.0112698
0.00473123
0.00490848
0.00536103
0.0061193
0.00735422
0.00956403
0.0111251
0.0113207
0.0106187
0.0116452
0.00468106
0.00482716
0.00525005
0.0060163
0.00733269
0.00976025
0.0118234
0.0122043
0.0117661
0.0122364
0.00470958
0.00476881
0.00506422
0.00575047
0.00700019
0.00938167
0.012314
0.013109
0.0126804
0.0128609
0.00494173
0.00481859
0.00491112
0.00539303
0.00645019
0.00838708
0.0120548
0.0138162
0.0140933
0.0134371
0.0056107
0.00502803
0.00489863
0.00509983
0.00583491
0.00732693
0.0104405
0.0135827
0.0147209
0.0147247
0.00633659
0.00560887
0.00508511
0.00498601
0.00535265
0.00640358
0.0083438
0.0121319
0.0141507
0.0148345
0.00640448
0.00592208
0.00547793
0.0049909
0.00505566
0.00568789
0.00703421
0.00906575
0.0111069
0.0111409
0.00495434
0.00511472
0.00551989
0.00617048
0.00731395
0.0096387
0.00988714
0.00871209
0.00866064
0.0143478
0.00497271
0.00525155
0.00584719
0.00686219
0.00902508
0.0106359
0.0105557
0.00960857
0.0095014
0.0151293
0.00498011
0.00534113
0.00607835
0.00737204
0.00994839
0.0114395
0.0114232
0.0104473
0.0102926
0.0157033
0.00497
0.00537192
0.00617837
0.00761781
0.0104357
0.0121509
0.0122852
0.0112867
0.0109277
0.0157721
0.00496774
0.00533311
0.0061294
0.00763235
0.0105675
0.0127364
0.0130792
0.0120789
0.0115279
0.0155865
0.00501184
0.00526307
0.00591279
0.00731602
0.0102122
0.0131162
0.0137661
0.0129916
0.0122439
0.0149369
0.00521851
0.00523538
0.0056567
0.00678869
0.00927515
0.0131035
0.0143447
0.014142
0.0133771
0.0145109
0.00575456
0.00539022
0.00550032
0.0062707
0.00819343
0.0124194
0.0146305
0.0152166
0.0143216
0.0148456
0.006389
0.00577146
0.00554132
0.00588501
0.00726988
0.010631
0.0144432
0.015855
0.0161441
0.0159466
0.00645619
0.00603112
0.00573107
0.00562952
0.00657209
0.00919342
0.0132284
0.0153228
0.0162135
0.0153915
0.00529398
0.00574267
0.00680833
0.00827065
0.0095533
0.00968578
0.00870685
0.00847294
0.0134733
0.0194925
0.00554435
0.00638894
0.00843186
0.0101425
0.0106048
0.0102276
0.00964978
0.00998772
0.0167083
0.0193212
0.00575275
0.00692016
0.00948783
0.0111797
0.0115576
0.0111288
0.0108871
0.0124706
0.0174825
0.0176532
0.00590438
0.00718258
0.0100086
0.0119817
0.0124261
0.0122153
0.0121707
0.0143013
0.0176342
0.0163582
0.00596924
0.00721589
0.00991962
0.0124856
0.0131861
0.0132375
0.0132632
0.0152314
0.0176243
0.0168949
0.0059469
0.00697878
0.00923001
0.0125774
0.0138563
0.0140724
0.0140497
0.0152577
0.0175555
0.0176527
0.00595191
0.00662874
0.00838026
0.0120846
0.0142322
0.0148608
0.0147929
0.015299
0.0172886
0.0176779
0.00613869
0.00638333
0.00761144
0.0105357
0.0140726
0.015431
0.0156213
0.0155377
0.0167164
0.0173513
0.00646161
0.00634684
0.00701994
0.00894507
0.0132276
0.0154495
0.0163975
0.016151
0.0169563
0.0175163
0.00648279
0.00639348
0.00670115
0.00797094
0.0116492
0.0150661
0.0165986
0.0173305
0.0177677
0.0183219
0.00714023
0.00728912
0.00733757
0.00776985
0.00857348
0.00842697
0.00838481
0.0119997
0.0194705
0.0194473
0.00854524
0.0090619
0.00930838
0.00944041
0.00949293
0.00948104
0.0112545
0.0166016
0.0179454
0.0122967
0.00977683
0.010332
0.0105551
0.0106499
0.0108023
0.0119643
0.0151307
0.0161768
0.0134674
0.00860583
0.0105919
0.0114315
0.0117998
0.0120439
0.0127237
0.014444
0.0151525
0.014773
0.00953865
0.00757097
0.0111502
0.0123544
0.0129455
0.0134877
0.014513
0.0149577
0.014913
0.0124897
0.00860689
0.00759203
0.0111902
0.0130477
0.0141899
0.0147902
0.0151403
0.0150689
0.0142157
0.0111658
0.00872926
0.00818948
0.0108493
0.0131129
0.014879
0.0154801
0.0155518
0.0151958
0.0139848
0.0111597
0.00932474
0.0099765
0.00977868
0.0127474
0.0148286
0.0158436
0.0159927
0.0154257
0.0142442
0.0115787
0.0103204
0.0126112
0.00886269
0.0117488
0.0144002
0.0158131
0.0162521
0.0159021
0.0148567
0.0126509
0.0114525
0.0130341
0.00798679
0.0100032
0.0133422
0.0154893
0.0163224
0.0166033
0.0159178
0.0151083
0.0142915
0.0148002
0.00734351
0.00787913
0.00816249
0.00884211
0.00978131
0.0126644
0.0166675
0.0173216
0.0138955
0.0125571
0.00886706
0.00910276
0.00952086
0.0106647
0.0134664
0.015535
0.0159826
0.0133418
0.00974855
0.00868683
0.0101228
0.0102648
0.0112192
0.0132664
0.0149292
0.0152058
0.0138811
0.00959699
0.00804318
0.00739515
0.011414
0.0118429
0.0132797
0.0144958
0.0148141
0.0143127
0.0108551
0.00819349
0.00737533
0.00704936
0.0128135
0.0134808
0.0144995
0.014771
0.0145149
0.0126747
0.00906252
0.00776171
0.00744203
0.00739312
0.0139622
0.0146091
0.0148956
0.0147822
0.0139334
0.0110863
0.00855525
0.00792185
0.00796777
0.00936499
0.0146515
0.0150985
0.0151712
0.0148306
0.0134541
0.0103637
0.00869721
0.0083671
0.00972038
0.0123285
0.0149309
0.0154172
0.0154452
0.0150268
0.0135976
0.0105112
0.00905398
0.00887121
0.0106529
0.0135089
0.0147784
0.0154441
0.0156328
0.0152671
0.0140274
0.0110969
0.00961508
0.00928035
0.0107743
0.0133761
0.0144869
0.0154183
0.0156402
0.0156044
0.0149125
0.0124981
0.010973
0.0102051
0.0111516
0.0132854
0.0132035
0.0134023
0.0127303
0.0122948
0.011465
0.0107403
0.0101049
0.00959869
0.0093564
0.00927248
0.0120798
0.0119591
0.0111705
0.0108117
0.0100246
0.00929523
0.00865591
0.00826296
0.00793942
0.00777614
0.0115608
0.0112174
0.010581
0.0102077
0.00922856
0.00854947
0.0080831
0.00776388
0.00762583
0.00745397
0.0115928
0.0111549
0.01051
0.00965083
0.00857335
0.00804321
0.00779859
0.00776029
0.0078666
0.00802903
0.0118859
0.0113659
0.0105447
0.00928351
0.00837901
0.00801101
0.00797556
0.0087065
0.00956696
0.00993239
0.0125158
0.0118032
0.0106817
0.00933003
0.00840508
0.00810299
0.00831356
0.00942277
0.0106171
0.0113002
0.0132145
0.0123874
0.0110259
0.00952153
0.0084643
0.00809224
0.00816759
0.00914029
0.0109297
0.0118596
0.0138456
0.013105
0.0116322
0.00997449
0.00870784
0.00810484
0.00787763
0.00836868
0.0101767
0.0120333
0.014206
0.0137599
0.012461
0.0109256
0.00934723
0.008389
0.0079571
0.00809983
0.0087981
0.0115481
0.0143356
0.0143774
0.0133
0.0120908
0.0110327
0.00963875
0.0087993
0.00900291
0.00964701
0.0114807
0.0112888
0.0115624
0.010921
0.0106559
0.0102189
0.00991913
0.00953128
0.0093375
0.00918103
0.00912134
0.0104136
0.0103337
0.00967641
0.00940521
0.00904345
0.00890728
0.00882524
0.0087901
0.00868571
0.00846749
0.00954765
0.00919673
0.00855367
0.00830909
0.00821349
0.0082058
0.00845405
0.00862952
0.00874036
0.00878632
0.00916496
0.00837441
0.00783226
0.00762529
0.00756754
0.0078236
0.00837948
0.00885478
0.00929075
0.00948786
0.0092912
0.0080547
0.00740723
0.00711429
0.00702692
0.00729997
0.00798623
0.00894914
0.00959216
0.00985193
0.00979446
0.00827921
0.007423
0.00685912
0.00665339
0.00669197
0.00731008
0.00867709
0.00972149
0.0100615
0.0108021
0.00900006
0.00772343
0.00702753
0.00661858
0.00648263
0.00671048
0.00752531
0.00904599
0.00996405
0.0120015
0.00995113
0.00845614
0.00762677
0.00720739
0.006894
0.00686861
0.00717052
0.00823851
0.00979692
0.0127973
0.0110505
0.00978767
0.00893326
0.00878476
0.00833802
0.00794346
0.00802942
0.00835805
0.00978311
0.0134076
0.0120172
0.0108732
0.0108176
0.0110221
0.0100571
0.00949291
0.00959286
0.00995904
0.0106037
0.011267
0.0116221
0.0116509
0.0115296
0.0113769
0.0111595
0.0109519
0.0107178
0.0105491
0.010473
0.00986968
0.0100581
0.0100791
0.0100324
0.00991693
0.00984682
0.00967993
0.0095545
0.00933609
0.00914625
0.00904273
0.0089419
0.00883721
0.0088036
0.00879896
0.00887412
0.00893966
0.00895431
0.00893148
0.00882034
0.0082905
0.00788467
0.00771954
0.00764762
0.00763347
0.00787675
0.00821593
0.00848819
0.00874293
0.00884413
0.00823693
0.0073899
0.00701059
0.00682365
0.00675344
0.00688726
0.00737061
0.0080009
0.00864847
0.00893101
0.0085253
0.00758902
0.00685505
0.00642888
0.00627796
0.00627065
0.00651135
0.00707532
0.00808869
0.00896672
0.00979457
0.00819917
0.00711659
0.00652607
0.00620394
0.00616816
0.00629834
0.006715
0.00757744
0.00893858
0.0108981
0.00931308
0.00771404
0.00690233
0.0065737
0.00657889
0.00668172
0.00698113
0.00752729
0.00883654
0.0113617
0.0102041
0.00867212
0.0076172
0.00766577
0.00783919
0.00789913
0.00807949
0.00842652
0.00932399
0.0115417
0.0103451
0.00907124
0.0089027
0.00955291
0.00963768
0.00937894
0.00943429
0.00954327
0.00981076
0.0134346
0.0144729
0.0148401
0.015051
0.0150854
0.0147792
0.0143687
0.0137604
0.0133626
0.0128472
0.0117375
0.0121237
0.0122563
0.0123012
0.0122192
0.0119209
0.0114971
0.0109648
0.0105736
0.0100896
0.0109939
0.0111875
0.011231
0.0112021
0.0110087
0.0108077
0.010442
0.0100413
0.0096619
0.00916716
0.00981452
0.00984487
0.00985577
0.00985271
0.00979503
0.00970001
0.00953799
0.00936706
0.0090913
0.00868697
0.00897507
0.0087089
0.00859455
0.00851308
0.00845699
0.00843286
0.00843127
0.00840367
0.00828421
0.00819865
0.00859902
0.00815749
0.00773151
0.00751
0.00735083
0.00725
0.00722613
0.0073355
0.00734859
0.00758376
0.00921361
0.00838329
0.00759625
0.00709201
0.00678973
0.00663665
0.00659338
0.00667593
0.00673266
0.00712961
0.0103511
0.00910252
0.00791769
0.00717898
0.00677651
0.00662512
0.00658784
0.0065964
0.00668196
0.00706807
0.0108074
0.0102727
0.00877129
0.007581
0.00716032
0.00707395
0.00716102
0.00729155
0.00748991
0.00808568
0.0108554
0.0104982
0.00920804
0.00807278
0.00808889
0.00821684
0.00820749
0.00824677
0.0082875
0.00869696
0.0102844
0.0100586
0.00869306
0.00806606
0.00778133
0.00771982
0.00809869
0.00927597
0.0124452
0.016066
0.0124161
0.0110945
0.0100933
0.00945412
0.00925545
0.00980868
0.0116121
0.0132765
0.0139218
0.0139485
0.0132916
0.0130268
0.0123988
0.0121497
0.0121485
0.0127581
0.0130229
0.0130927
0.0121764
0.00972058
0.0133837
0.0134462
0.0132017
0.0130406
0.0129447
0.012907
0.012674
0.0115736
0.00932101
0.00838454
0.0127067
0.0131954
0.0131602
0.0129663
0.0128107
0.0124716
0.0113988
0.00949314
0.00843177
0.00791165
0.0115438
0.0124677
0.0126339
0.0125739
0.0122239
0.011468
0.0101459
0.00870578
0.0080792
0.0078202
0.0111432
0.0114408
0.0117944
0.0117938
0.0115128
0.0106947
0.00932361
0.0080527
0.00760237
0.00753429
0.0113128
0.0107185
0.0109165
0.0109954
0.0108955
0.0104159
0.00937669
0.00810103
0.00743466
0.00735089
0.0117863
0.010765
0.0103163
0.010158
0.0100853
0.00989717
0.00946303
0.00840859
0.00765192
0.00770303
0.0112457
0.0111886
0.00993769
0.00952084
0.00960426
0.00963246
0.00951665
0.00908632
0.00831229
0.0081658
0.0169592
0.0167053
0.0152705
0.0140707
0.0135953
0.0141058
0.0135507
0.0116662
0.0101862
0.00872879
0.0152884
0.0142294
0.013388
0.0126361
0.0122807
0.0124564
0.0133109
0.0132129
0.0125657
0.0111479
0.0139515
0.0134049
0.0128422
0.012268
0.0120143
0.0122027
0.0126962
0.0132646
0.0129616
0.0116534
0.0129188
0.0127499
0.012255
0.0117876
0.0118331
0.0121073
0.0125563
0.0129847
0.0125584
0.0112158
0.0125665
0.0124404
0.0118728
0.0115659
0.0116311
0.01192
0.0121667
0.0122653
0.011572
0.0106026
0.0124329
0.0120187
0.0113273
0.0112275
0.011413
0.011539
0.011616
0.0116159
0.0109389
0.0103839
0.0123265
0.0116888
0.0110609
0.0109143
0.0110502
0.0110994
0.0111421
0.0110615
0.010607
0.0102089
0.0119764
0.0115537
0.0108986
0.0105546
0.0105793
0.0106387
0.0107802
0.0107769
0.0104054
0.00986219
0.0113843
0.0115079
0.0108646
0.0102936
0.0100551
0.0100753
0.0102419
0.0103716
0.0100143
0.00979794
0.0105343
0.0110923
0.0107423
0.0102209
0.00993645
0.0098703
0.0100162
0.0102287
0.00996277
0.00981459
0.0188136
0.0175864
0.0167891
0.0154236
0.0136803
0.0125532
0.0119746
0.0119248
0.0120031
0.0123006
0.0155691
0.0147399
0.0141174
0.0130892
0.0119971
0.0112183
0.0109216
0.0109499
0.0111329
0.0111354
0.0140243
0.0137087
0.0131962
0.0121747
0.0112436
0.0105027
0.010124
0.0101848
0.0104433
0.01063
0.0134257
0.0132173
0.0124269
0.0111523
0.0101944
0.00962111
0.00962817
0.00979204
0.0101549
0.0104113
0.0131869
0.0128018
0.0114954
0.010377
0.00962392
0.00935035
0.00947008
0.00975164
0.0100966
0.0102821
0.0129627
0.0122918
0.0108753
0.00990066
0.00930659
0.00926767
0.00944575
0.00979962
0.0100837
0.0102059
0.0126065
0.0118994
0.0106051
0.00967381
0.00919653
0.0092177
0.00950374
0.00985441
0.0100314
0.010081
0.0122278
0.0117158
0.0104995
0.00958954
0.00916846
0.00919439
0.00958394
0.00996596
0.0100403
0.0100442
0.0118429
0.0115669
0.0104611
0.00966052
0.00930189
0.00928584
0.00967463
0.0101307
0.0103232
0.010511
0.0115046
0.0112613
0.0103533
0.0097998
0.00960019
0.00975334
0.0100951
0.010345
0.0104131
0.0103516
0.0141527
0.0132286
0.0119192
0.0109866
0.0103754
0.00976121
0.0093715
0.00949811
0.0100565
0.0104027
0.0142733
0.0131645
0.01155
0.0103083
0.00944884
0.00884052
0.00865733
0.0087323
0.00906148
0.00932319
0.013628
0.0123206
0.0106294
0.00932528
0.00839114
0.00789056
0.00786927
0.00799669
0.00836966
0.00857339
0.0133596
0.0119372
0.0101549
0.00861351
0.00779702
0.00746791
0.00747338
0.00760714
0.00798164
0.00831175
0.0129219
0.0111908
0.00949508
0.00817301
0.00755787
0.00732022
0.00734696
0.00750286
0.00784376
0.00834069
0.0125336
0.0108295
0.00922067
0.00802946
0.00749558
0.00730694
0.00734332
0.00753057
0.00785719
0.00840761
0.0120653
0.0104588
0.00910499
0.00801518
0.00762662
0.00753339
0.00751787
0.00764047
0.00796248
0.00857129
0.0117562
0.0102819
0.00908691
0.00827954
0.00804273
0.00801697
0.00796472
0.00793375
0.00813663
0.00872841
0.0115426
0.0101109
0.00919216
0.00862848
0.00850971
0.00870503
0.00872823
0.00872457
0.00880468
0.00913492
0.0114382
0.00999401
0.00924702
0.00893668
0.00897114
0.00923207
0.00929688
0.0091993
0.00898591
0.00889854
0.0127645
0.0109707
0.00987929
0.00905024
0.00856414
0.00809228
0.00783822
0.00808221
0.0088466
0.00993834
0.0131389
0.0111638
0.00977667
0.00873361
0.00809607
0.00766424
0.00743877
0.00750927
0.00789576
0.00804632
0.0128194
0.0107262
0.00928909
0.00830579
0.00776337
0.00737884
0.0071482
0.00715846
0.00732282
0.00747667
0.0126109
0.0105296
0.00908581
0.00811895
0.00762716
0.00727521
0.00704295
0.00696739
0.00703307
0.00719761
0.0121453
0.0101151
0.00883409
0.00803283
0.00758449
0.00725757
0.00702947
0.00691358
0.00694881
0.00717706
0.0118873
0.00991396
0.00871897
0.0080093
0.00762495
0.00738485
0.00716089
0.00697733
0.00699186
0.00732882
0.0114425
0.00956675
0.00861188
0.00807143
0.00786417
0.00768704
0.00745802
0.00719659
0.00713533
0.0075281
0.0112172
0.00939819
0.00856446
0.00825192
0.00820802
0.00813843
0.00789802
0.00760549
0.007459
0.0075864
0.0110025
0.00917423
0.00851315
0.0083751
0.00851102
0.00852613
0.0083409
0.00813579
0.00813319
0.00820779
0.0109225
0.00901997
0.00844628
0.00848631
0.00869602
0.00872198
0.00856359
0.00836871
0.00823476
0.00790662
0.0146871
0.0137772
0.012858
0.0118133
0.0111636
0.0106373
0.0104577
0.0101993
0.00991888
0.00888085
0.0149537
0.014046
0.0130815
0.0117898
0.0109944
0.0104666
0.0100092
0.00976552
0.00919261
0.00896244
0.01496
0.0141084
0.0133075
0.0119254
0.0109852
0.0103902
0.00978471
0.0092442
0.00874849
0.00797367
0.0146854
0.0141056
0.0135445
0.0123701
0.0112671
0.0103921
0.00958075
0.00888427
0.00817548
0.00729449
0.0144038
0.0138766
0.0136322
0.0126889
0.0115657
0.0105306
0.00950364
0.00870989
0.00793237
0.00699444
0.0141144
0.0134854
0.0136565
0.0129943
0.0118644
0.010831
0.00956066
0.00866799
0.00786593
0.00693205
0.014015
0.0128404
0.0134603
0.0131544
0.0121962
0.0112126
0.00997861
0.00890232
0.00817596
0.00723688
0.014039
0.0119324
0.0129157
0.0132097
0.0123828
0.0116704
0.0104474
0.0092864
0.00857594
0.00791743
0.0145133
0.0111721
0.0120836
0.0130647
0.0124551
0.011978
0.0112861
0.00991288
0.00900939
0.00851636
0.014675
0.0106674
0.0107411
0.0125176
0.0124399
0.0120821
0.0118072
0.0113869
0.0105588
0.0099617
0.0154015
0.0129509
0.0120616
0.011579
0.0110887
0.0106313
0.0100088
0.00933654
0.00916329
0.00948428
0.0152012
0.0131713
0.01214
0.0116032
0.0110311
0.0104843
0.0097626
0.00907138
0.00896878
0.00909679
0.0154072
0.0131123
0.0119807
0.0115248
0.0110156
0.010451
0.00966987
0.00894992
0.00865189
0.00852785
0.0154924
0.0129212
0.0117962
0.0114841
0.0110419
0.0104577
0.00962654
0.00882142
0.00835239
0.00818426
0.0153882
0.0125841
0.0114871
0.0113457
0.0111068
0.010557
0.0096169
0.00874047
0.00818503
0.00781166
0.0148443
0.012141
0.0111955
0.0112494
0.0112077
0.0107512
0.00970822
0.00870529
0.00807997
0.00749367
0.0145611
0.0116401
0.010861
0.0110689
0.0112664
0.0109356
0.00991524
0.00870876
0.00808402
0.00752843
0.0141567
0.0112249
0.0104977
0.0108981
0.0112696
0.0109993
0.010111
0.00888466
0.0083404
0.00797515
0.0140063
0.0109089
0.010116
0.0106221
0.0111607
0.0109989
0.0101686
0.00897499
0.0084126
0.00793293
0.0139802
0.0107141
0.00977278
0.0103545
0.0108446
0.0108172
0.0101449
0.00905071
0.00831331
0.00774655
0.012401
0.01074
0.0100027
0.00969846
0.00956853
0.00951958
0.00970786
0.0104335
0.010742
0.0108636
0.0121769
0.011001
0.0104915
0.0101583
0.0100061
0.00996506
0.0101551
0.0106939
0.0109772
0.0115151
0.012867
0.0114942
0.0109482
0.0106247
0.010496
0.0104779
0.0107671
0.0112948
0.0117108
0.0120566
0.013812
0.0121269
0.0114613
0.0111297
0.0110058
0.0111157
0.0114466
0.0116854
0.0117488
0.0114873
0.014734
0.0127595
0.011964
0.0115941
0.0114558
0.0115064
0.0116443
0.011674
0.0114784
0.0101722
0.0152597
0.0135493
0.0124705
0.011999
0.0117632
0.0116659
0.0116345
0.011525
0.010821
0.00980399
0.015592
0.0141894
0.0129519
0.0124423
0.0119601
0.0117386
0.0115736
0.0111879
0.0103615
0.00965393
0.0155569
0.01481
0.0135189
0.012786
0.0123413
0.0118208
0.0114261
0.0109243
0.0100932
0.00932795
0.0153533
0.0150548
0.0141467
0.0131578
0.012717
0.0120002
0.0114698
0.0107448
0.00977972
0.00931755
0.0149898
0.0151326
0.0143721
0.0133624
0.0129601
0.012409
0.011741
0.0108565
0.00984372
0.00974583
0.00792885
0.00794706
0.00716805
0.00683284
0.00654813
0.00662336
0.00704843
0.00762546
0.00805477
0.00859918
0.00836762
0.00791357
0.00713739
0.00687837
0.00676228
0.0069383
0.00736965
0.00791047
0.00843655
0.00939881
0.00888062
0.00802264
0.00740854
0.00719287
0.00714805
0.00727884
0.00770016
0.00829082
0.0091918
0.00963911
0.0093798
0.00845976
0.00792053
0.00768811
0.00760542
0.00767668
0.00822821
0.0090753
0.00944245
0.00925303
0.00971948
0.00895357
0.00850911
0.00829044
0.00818365
0.00841963
0.00907849
0.00938131
0.00940789
0.00847668
0.0100061
0.00931242
0.00898612
0.0088799
0.00888407
0.00911777
0.00942842
0.00956513
0.00929252
0.00788471
0.0101249
0.00964507
0.0094076
0.00936369
0.00935025
0.00956376
0.00971189
0.00963285
0.00902776
0.00771855
0.0102645
0.00993817
0.00976007
0.00976703
0.00978218
0.00994267
0.00992961
0.0097161
0.00903975
0.00772992
0.0104571
0.0105667
0.0103238
0.0102258
0.0101991
0.0101694
0.010111
0.00987181
0.00915641
0.00778277
0.0107411
0.0107888
0.0106217
0.0106439
0.010626
0.0105639
0.0104693
0.0102274
0.00946067
0.00800844
0.00444285
0.00444171
0.00467236
0.00557379
0.00627193
0.00661601
0.00720287
0.00646346
0.00465953
0.0041619
0.00447832
0.0045751
0.00498332
0.00582466
0.00627349
0.00675699
0.00707616
0.00654149
0.0052692
0.00438802
0.00521653
0.00538238
0.00583209
0.00604567
0.00628982
0.00667381
0.00689894
0.00643431
0.00518172
0.00441376
0.00536602
0.00607152
0.0059879
0.00603381
0.00621062
0.0064161
0.00635818
0.00581187
0.00516717
0.00453572
0.00505141
0.00590655
0.0057958
0.00580419
0.00577522
0.0056891
0.00548232
0.00516605
0.00517594
0.0046867
0.00501688
0.00554081
0.0053307
0.00526092
0.00524274
0.00515008
0.00508631
0.00511168
0.00530362
0.00460512
0.0049422
0.00578961
0.00557676
0.00549235
0.00536352
0.0053156
0.00519772
0.00517046
0.00487537
0.00454479
0.00481304
0.00552339
0.00557222
0.00560592
0.00545158
0.00533713
0.00518866
0.00506201
0.00463785
0.00450739
0.00462955
0.00544411
0.00532696
0.00530697
0.0053911
0.00540873
0.00534306
0.00505192
0.00463511
0.00451415
0.00459516
0.00514533
0.00513958
0.00509789
0.00518594
0.00539365
0.00533508
0.00495703
0.00460415
0.00456686
0.00361808
0.00374357
0.00377844
0.00379297
0.00370742
0.00343452
0.0030906
0.00296138
0.00292396
0.00291781
0.00364947
0.00374079
0.00375932
0.00370553
0.00351928
0.00317382
0.00300398
0.00296058
0.00297307
0.00289147
0.00367597
0.00372837
0.00373004
0.00361817
0.0033669
0.00307467
0.0029704
0.00294428
0.00289256
0.00288632
0.00367423
0.0037022
0.00366306
0.00352421
0.00329564
0.00307655
0.00297404
0.00293855
0.00291502
0.00293305
0.00366318
0.00367289
0.00362289
0.00349265
0.00330541
0.00310811
0.00302687
0.00297025
0.00298207
0.00301598
0.00364073
0.0036403
0.00356078
0.00345461
0.00334004
0.00318952
0.00310753
0.00308964
0.00309062
0.00305334
0.0036008
0.00358526
0.00351619
0.00342678
0.00334762
0.00329408
0.00321869
0.00318782
0.0031202
0.00298923
0.00356423
0.00354112
0.00341622
0.00307899
0.00311639
0.00318985
0.00318111
0.00315641
0.00297166
0.00292297
0.00352689
0.00330998
0.00298294
0.00292384
0.00291871
0.00299242
0.00302963
0.00298285
0.00292222
0.0028997
0.00343739
0.00319451
0.00293741
0.00295009
0.00292775
0.00299003
0.00297572
0.00283908
0.00277887
0.00270038
0.00412686
0.00420577
0.00423242
0.00424648
0.00423633
0.00418725
0.0040516
0.00375198
0.00336223
0.0031719
0.0040969
0.00412644
0.00412716
0.00409343
0.00401623
0.00382312
0.00351131
0.00324083
0.0030571
0.0029858
0.00399683
0.00398049
0.00391471
0.00377395
0.00355802
0.00328809
0.00308681
0.00293681
0.00287461
0.00286332
0.00378423
0.00368126
0.00348812
0.00329537
0.00309844
0.00293069
0.0028075
0.00275164
0.00273797
0.00279858
0.0033512
0.00323086
0.00302493
0.00292236
0.00276513
0.00269115
0.00263797
0.00262089
0.00262949
0.00268322
0.00300025
0.00288998
0.00274578
0.00267513
0.00257959
0.00254394
0.00250561
0.00250745
0.0025431
0.0025826
0.00273422
0.00262815
0.00251952
0.00245227
0.00240772
0.0023939
0.00240396
0.00243505
0.00247636
0.00248625
0.00254747
0.0024791
0.00241042
0.00238369
0.00237297
0.0023383
0.00235799
0.00239044
0.00240597
0.00241642
0.00249966
0.0024416
0.00241561
0.00242156
0.00242066
0.00234649
0.00232941
0.00236163
0.00237724
0.00237364
0.00255442
0.00245202
0.00242578
0.00246043
0.00244144
0.00234997
0.00232263
0.0023522
0.00235146
0.00221715
0.00280187
0.00265236
0.00261911
0.00260761
0.00261031
0.00266351
0.00273761
0.00279821
0.00285725
0.00295566
0.00280383
0.0026431
0.00257884
0.00256156
0.00257763
0.00264024
0.0026886
0.00275194
0.00284943
0.00301282
0.00283891
0.00266323
0.00258159
0.00254213
0.00255264
0.00259823
0.00265021
0.00272635
0.00284237
0.00302935
0.00295587
0.00272594
0.00262998
0.00256808
0.00254675
0.00256389
0.00261935
0.00270089
0.00278922
0.00288602
0.003203
0.00292537
0.00274535
0.00263356
0.00256948
0.00255239
0.00257994
0.00264749
0.00269241
0.00268474
0.00332947
0.00314346
0.00295632
0.00279086
0.00264293
0.00255504
0.00252035
0.00254752
0.00254468
0.00247017
0.00334995
0.00322266
0.00311161
0.00294321
0.00273967
0.00258176
0.00247103
0.00242457
0.00238544
0.00231328
0.00330653
0.00321912
0.00311954
0.00302243
0.00285054
0.00262897
0.00246539
0.00234104
0.00228189
0.00224286
0.00321308
0.00317649
0.00310483
0.00302065
0.00290495
0.0027055
0.00248594
0.00231949
0.00224359
0.00221771
0.0029834
0.00302399
0.00301716
0.00298256
0.00290635
0.0027597
0.00253002
0.00233427
0.00223314
0.00220882
0.00586113
0.0059609
0.00614358
0.00642871
0.00662914
0.00686501
0.00733996
0.00805448
0.00907939
0.0086045
0.00595854
0.0059928
0.00608815
0.00632202
0.00658497
0.00685928
0.007223
0.00784623
0.00891363
0.00863585
0.00634801
0.00614643
0.00615012
0.00625812
0.00647783
0.00678471
0.0071422
0.00778728
0.00880703
0.00866958
0.00700169
0.00658931
0.00634333
0.00635293
0.00650401
0.00682204
0.00720218
0.00788883
0.00885506
0.0087204
0.00754734
0.0071186
0.00674362
0.00665736
0.00676715
0.00706568
0.00760871
0.00825217
0.00896964
0.00875273
0.00875683
0.00822345
0.00771622
0.00750218
0.00759846
0.00792701
0.00848692
0.00902364
0.00904439
0.00877535
0.0103492
0.00958272
0.0091669
0.00903036
0.00906962
0.00924476
0.00937079
0.00926142
0.00900192
0.00864207
0.0101864
0.00985711
0.00971933
0.00957873
0.00947122
0.0093119
0.00921338
0.00902786
0.00875575
0.00838099
0.00889905
0.0089083
0.00903717
0.00905107
0.00904705
0.00891773
0.00872265
0.00851434
0.00826732
0.00798031
0.00768295
0.00801418
0.00829128
0.0084206
0.00837974
0.00826319
0.00811066
0.00793036
0.00768481
0.00733195
0.00536367
0.00549435
0.0056059
0.00578025
0.0059311
0.00603567
0.00622881
0.00648768
0.00690924
0.00770668
0.0054152
0.00547635
0.00558881
0.00571596
0.00592225
0.00604551
0.00624198
0.00645153
0.00684194
0.00755724
0.00568382
0.00558104
0.00561346
0.00571094
0.00585691
0.00601995
0.00621683
0.00644285
0.00682077
0.00743686
0.00607757
0.00589121
0.00575605
0.0057689
0.00585465
0.00602228
0.00622855
0.00647307
0.0068413
0.00745556
0.00637494
0.00622753
0.00603836
0.00595672
0.00596511
0.00607329
0.00630866
0.0065892
0.00699456
0.00754781
0.00697617
0.00685574
0.00663007
0.00643384
0.00634585
0.00640076
0.00658801
0.00687448
0.0072962
0.00775077
0.00832479
0.0081168
0.00775431
0.00744837
0.00725622
0.0072526
0.00735682
0.00756699
0.00778409
0.00793677
0.00878831
0.00858102
0.00834107
0.00813085
0.00804704
0.00803658
0.00802861
0.00803122
0.00800079
0.00789713
0.00843858
0.00839631
0.00833865
0.00826276
0.00818635
0.00814746
0.00805967
0.0079577
0.00783863
0.00768036
0.0072694
0.0075213
0.00777406
0.00781698
0.00780388
0.00777986
0.00771325
0.00759376
0.0073855
0.00722596
0.00517785
0.00526633
0.00539896
0.00552195
0.00564531
0.00573455
0.00581369
0.00590892
0.00604425
0.00642196
0.00515332
0.00518579
0.00529006
0.00542819
0.00555025
0.00568694
0.0057893
0.0058998
0.00602744
0.00635354
0.00526739
0.00525062
0.00529679
0.00540355
0.00553855
0.00565882
0.00577469
0.00591205
0.00603945
0.00633185
0.00557651
0.00549049
0.00542054
0.00545077
0.00553841
0.0056646
0.00578103
0.00592041
0.00605744
0.006338
0.00573694
0.00570301
0.0056415
0.00561008
0.00563056
0.00570226
0.00581002
0.00595054
0.00612078
0.00637565
0.00604579
0.00606132
0.00603045
0.00597623
0.00592961
0.00593035
0.00596429
0.00606359
0.00625358
0.00647758
0.00690157
0.00694601
0.00688209
0.00676156
0.00660091
0.00649284
0.00644187
0.0064698
0.00655931
0.00665717
0.00740313
0.00738279
0.0073191
0.00719965
0.00705339
0.0069575
0.006902
0.00688022
0.00687272
0.00687284
0.00733567
0.00731804
0.00728454
0.00721695
0.0071329
0.00706398
0.00700786
0.00694825
0.00688384
0.00686876
0.00681118
0.00677258
0.00681421
0.00684814
0.00688287
0.00690198
0.00688621
0.00684599
0.00674357
0.00675903
0.00521209
0.00529184
0.00544764
0.00555376
0.00565515
0.00569792
0.0057169
0.00572372
0.00574988
0.00586004
0.00502836
0.00505218
0.0051625
0.00529173
0.00540486
0.00549116
0.00557662
0.00562947
0.0056731
0.00581374
0.00505519
0.00506133
0.00511631
0.00523445
0.0053501
0.00544136
0.00552844
0.00561565
0.00567272
0.00581424
0.00523332
0.00522308
0.00521756
0.00526056
0.00535881
0.0054566
0.00554501
0.00563359
0.00570219
0.0058304
0.00537674
0.00537651
0.00539887
0.00541258
0.00546279
0.00553227
0.00560261
0.00567836
0.00574928
0.00586259
0.00553311
0.00560848
0.00568817
0.00574586
0.00576866
0.00579544
0.00581694
0.00582146
0.00584717
0.00592093
0.00597873
0.00619978
0.0063114
0.00631226
0.00628685
0.00623444
0.00615097
0.00608479
0.00605726
0.00607069
0.00645294
0.00658642
0.00660558
0.00658363
0.00652262
0.00641723
0.0063321
0.0062617