/*--------------------------------*- C++ -*----------------------------------*\
  =========                 |
  \\      /  F ield         | OpenFOAM: The Open Source CFD Toolbox
   \\    /   O peration     | Website:  https://openfoam.org
    \\  /    A nd           | Version:  9
     \\/     M anipulation  |
\*---------------------------------------------------------------------------*/
FoamFile
{
    format      ascii;
    class       volScalarField;
    location    "80";
    object      f8.gas;
}
// * * * * * * * * * * * * * * * * * * * * * * * * * * * * * * * * * * * * * //

dimensions      [0 0 0 0 0 0 0];

internalField   nonuniform List<scalar> 
137980
(
0.00737652
0.00734002
0.00744319
0.00774161
0.00811889
0.00856036
0.00912135
0.0100576
0.0108024
0.0123109
0.00728607
0.00728273
0.00747166
0.00783745
0.00830517
0.008846
0.00951764
0.0105332
0.0115607
0.0125202
0.00720834
0.00721473
0.00744272
0.00785757
0.00838615
0.00900741
0.0097475
0.0107735
0.0120279
0.0125959
0.00709105
0.00710783
0.00734846
0.00777914
0.00835381
0.00905319
0.00983788
0.010808
0.0119637
0.012503
0.00695186
0.00697559
0.00720521
0.00761514
0.0081844
0.00894081
0.00977261
0.0106942
0.0116645
0.0121454
0.00686162
0.00686577
0.00703705
0.00738735
0.0078881
0.00860183
0.00949975
0.0104074
0.0112678
0.0116846
0.00687452
0.00683872
0.0069127
0.00714208
0.00753569
0.00809272
0.00884492
0.00974233
0.0105919
0.0111613
0.00707788
0.00690833
0.00688901
0.00697892
0.00722326
0.00761744
0.00814825
0.00877832
0.00938178
0.0099352
0.00745341
0.00713434
0.00696428
0.00695621
0.00702761
0.00728781
0.00768048
0.00818431
0.00869865
0.00902303
0.00780305
0.0074514
0.00718827
0.00703245
0.00700188
0.00704972
0.00730319
0.00774982
0.00827209
0.00875544
0.00738106
0.0073793
0.00754619
0.00794381
0.00850452
0.00923296
0.010502
0.0111485
0.0108049
0.0128827
0.00731203
0.00734573
0.0076192
0.00812209
0.00879688
0.00971882
0.0112885
0.0119505
0.0118477
0.0133953
0.0072401
0.00730184
0.00763992
0.00819712
0.00894447
0.0100272
0.0118607
0.0128693
0.0129728
0.0140774
0.00712934
0.00721218
0.00756177
0.00815571
0.00899005
0.0101927
0.0121762
0.0138577
0.0142912
0.0146623
0.00701835
0.00709334
0.00741908
0.0079866
0.0088411
0.0101149
0.0120082
0.0142762
0.0152066
0.0153709
0.00698531
0.00701264
0.00723265
0.00772651
0.0085075
0.00973695
0.0115017
0.0140007
0.0152354
0.0156589
0.00711768
0.00704911
0.00709051
0.00741596
0.00804633
0.00904176
0.0105527
0.0128377
0.0147962
0.0155071
0.00761846
0.00724726
0.00713158
0.00718993
0.00758759
0.00830369
0.00937974
0.0108838
0.012957
0.0146104
0.00835527
0.00770225
0.00732971
0.00716282
0.00727547
0.00773845
0.00848181
0.00949968
0.0106427
0.0118351
0.00857693
0.00807741
0.00766432
0.00729138
0.00716625
0.00731344
0.00775785
0.00849722
0.00951748
0.00975507
0.00740119
0.00746038
0.00773778
0.00826658
0.00900343
0.0102305
0.0117605
0.0118312
0.010979
0.01393
0.00735865
0.00748601
0.00791133
0.00858829
0.00959517
0.0113216
0.0126861
0.0127322
0.0119389
0.0142621
0.00730911
0.00749454
0.00799308
0.0087948
0.0100412
0.0121523
0.0135325
0.0136603
0.0129352
0.0147514
0.0072265
0.00745041
0.00799359
0.00886898
0.0102594
0.0126778
0.0143592
0.0146759
0.0141346
0.0151591
0.00716952
0.00736281
0.00788137
0.00877939
0.0102625
0.0129039
0.0150465
0.0155358
0.0152604
0.0157395
0.00721159
0.00729935
0.00767721
0.00850056
0.00993085
0.0125535
0.0155259
0.0163636
0.0161558
0.0163424
0.0074875
0.00736499
0.0074964
0.00810201
0.00934807
0.0115163
0.0152843
0.0170492
0.0174194
0.0169138
0.00821607
0.00760468
0.00747767
0.00775356
0.00865738
0.0103845
0.0137836
0.0168509
0.0180191
0.0181089
0.00897515
0.00821073
0.00767187
0.00760023
0.00808473
0.00934719
0.0115427
0.0155172
0.0174918
0.018236
0.00909599
0.00857667
0.00808813
0.00759275
0.00770124
0.00849435
0.0100821
0.0124139
0.0145847
0.0145255
0.0074927
0.00769393
0.00817652
0.00892569
0.0101754
0.0126373
0.0130695
0.0120062
0.0120034
0.0176888
0.00753011
0.0078761
0.00857919
0.00971651
0.0119945
0.0137774
0.0138848
0.0130401
0.0129332
0.0184386
0.00755179
0.00800642
0.00887261
0.0103011
0.0129492
0.0145886
0.0147435
0.0139523
0.0138188
0.0189703
0.00755412
0.0080588
0.00900838
0.0105904
0.0134606
0.0152502
0.0155464
0.0148113
0.0144781
0.0190398
0.00756325
0.00803701
0.00898372
0.0106381
0.0136334
0.015779
0.0162353
0.0156212
0.0151126
0.018868
0.00761992
0.00796225
0.00876444
0.0103401
0.0133308
0.0161243
0.0168264
0.0164621
0.015794
0.0182641
0.00784458
0.00792275
0.00847582
0.00980144
0.0124523
0.0161234
0.0173895
0.0174324
0.0168408
0.0178498
0.0083858
0.00806533
0.00827897
0.00923414
0.0113313
0.0155385
0.0176298
0.01828
0.0176627
0.0181674
0.00899392
0.00842577
0.0082707
0.00878291
0.0103779
0.0139167
0.017489
0.0188973
0.0192909
0.0191671
0.0090994
0.0086772
0.0084248
0.00843164
0.00959957
0.0124917
0.0163903
0.0184352
0.0193651
0.0187358
0.00794477
0.00847923
0.0096973
0.0111496
0.0125045
0.0127734
0.0119283
0.0117217
0.0168703
0.0225018
0.00826375
0.00922549
0.0113846
0.0131306
0.0136395
0.01348
0.0129751
0.0133502
0.019872
0.0223067
0.00853258
0.00985597
0.0125106
0.0142205
0.0146361
0.0144505
0.0142523
0.0158375
0.0205246
0.0206359
0.00873477
0.0101647
0.0130674
0.0150402
0.015516
0.0154977
0.0155308
0.0175811
0.0206348
0.0192917
0.00882682
0.0102377
0.0130276
0.0155208
0.0162752
0.0164348
0.0165586
0.0184579
0.0206113
0.0198112
0.00880723
0.010014
0.0124095
0.015612
0.0168909
0.0172048
0.0172957
0.0185006
0.0205104
0.0204269
0.00878489
0.00962926
0.011528
0.0151717
0.0172223
0.0179232
0.0179738
0.0185263
0.02022
0.020429
0.00891211
0.00932713
0.0107465
0.0137885
0.0170762
0.0183795
0.0186697
0.0187139
0.0196573
0.0200986
0.00915804
0.00917557
0.0100818
0.0121735
0.0163028
0.0183539
0.019271
0.019165
0.0198635
0.0202552
0.0091452
0.00915404
0.00966652
0.0111223
0.0149396
0.017958
0.0194046
0.0201397
0.0205581
0.0209916
0.00997795
0.0101355
0.0101932
0.0106558
0.0115434
0.0115974
0.0115793
0.0154049
0.0223374
0.0222711
0.0114087
0.011961
0.0122158
0.0124586
0.0126367
0.0127429
0.0145881
0.0196708
0.0209194
0.0153387
0.0126878
0.0133073
0.0135731
0.0137484
0.0140444
0.015302
0.0182658
0.019244
0.0166802
0.0114635
0.0135986
0.0144541
0.0148288
0.0151465
0.0159432
0.0175881
0.0182321
0.0178883
0.0124002
0.0101479
0.0141929
0.0153723
0.0159399
0.016588
0.0176157
0.0180549
0.0179643
0.0155448
0.0113526
0.0101428
0.0142732
0.0160671
0.0171453
0.0178028
0.0181826
0.0181052
0.0172486
0.0141926
0.0114511
0.0107516
0.0139871
0.016149
0.0178671
0.0184452
0.0185266
0.0181885
0.0169994
0.01416
0.0120465
0.0125153
0.0129965
0.0157983
0.0178141
0.0187455
0.0189039
0.0183774
0.0172467
0.0145934
0.0130988
0.0150952
0.0118913
0.014866
0.0174083
0.0187121
0.019083
0.0187966
0.0177957
0.0156892
0.0143193
0.0156422
0.0109259
0.0131493
0.0163991
0.0184117
0.0191133
0.0193486
0.0187127
0.0180144
0.0172244
0.0175818
0.0103185
0.0108847
0.011276
0.0120616
0.0131413
0.0159606
0.0196984
0.0203021
0.01692
0.0154996
0.0118372
0.0121623
0.0127219
0.0139574
0.0166833
0.0186141
0.0190109
0.0165129
0.0127851
0.011636
0.0131268
0.0133758
0.0144305
0.0164397
0.0180352
0.0182747
0.0170077
0.0126148
0.0109046
0.0101385
0.0144501
0.0149073
0.0163815
0.017584
0.0178906
0.0173936
0.0140367
0.0110529
0.0100769
0.00963986
0.0157726
0.0164486
0.0175058
0.0177801
0.0175533
0.0157993
0.0120192
0.0105333
0.0101031
0.00996651
0.0168245
0.017518
0.0178255
0.0177448
0.0169596
0.0141701
0.0114189
0.0106526
0.0105791
0.0117871
0.0174814
0.0179438
0.0180248
0.0177496
0.0164081
0.0134068
0.0115138
0.0110339
0.0121974
0.0146431
0.0177275
0.0182158
0.0182542
0.0178635
0.0165338
0.013534
0.0118237
0.0115402
0.0130739
0.0158171
0.0175997
0.0182104
0.0183869
0.0181023
0.0169011
0.0140973
0.0124186
0.0119947
0.013279
0.0157625
0.0173299
0.0181611
0.0183724
0.0183482
0.0176773
0.0154542
0.0138177
0.0129938
0.0138123
0.0157516
0.0163539
0.0165625
0.0159429
0.0154269
0.0145865
0.0138203
0.0131568
0.0125975
0.0122851
0.0121566
0.0152392
0.0151564
0.0142963
0.0138886
0.0130764
0.0123242
0.0116371
0.0111885
0.0107684
0.0105496
0.0146585
0.0143411
0.0136436
0.013247
0.012261
0.0115435
0.0109661
0.0105705
0.0103803
0.0101128
0.0146344
0.01416
0.0135038
0.012627
0.0114761
0.0108053
0.0104846
0.0104165
0.0104342
0.0105182
0.0148567
0.0143402
0.0134796
0.0121475
0.0111105
0.0106455
0.010559
0.0111078
0.011946
0.0123056
0.0153715
0.0147097
0.013549
0.0121123
0.0110382
0.0106614
0.0107067
0.0117347
0.0129298
0.0136232
0.0159944
0.0152044
0.0138019
0.0122621
0.0110545
0.0105846
0.0105645
0.0114611
0.0132004
0.0141877
0.0165772
0.0158433
0.0143706
0.0126865
0.0112917
0.0105821
0.0102909
0.0108077
0.0125074
0.0143681
0.0168884
0.0164316
0.0151635
0.0136109
0.0119667
0.0108935
0.0104156
0.0105839
0.01129
0.0140283
0.0169766
0.016998
0.0159446
0.0147584
0.0136423
0.0121953
0.0113829
0.0116452
0.012352
0.014155
0.0144192
0.0147218
0.01411
0.0138501
0.0134033
0.0130594
0.0126232
0.0123756
0.0121068
0.0119818
0.0134144
0.0133733
0.0126827
0.012388
0.0119589
0.0117865
0.0116501
0.0115784
0.0114882
0.0112833
0.0124399
0.0120818
0.0113443
0.0110397
0.0108985
0.0108641
0.0110621
0.0112304
0.0113075
0.0113257
0.0119533
0.0111542
0.0104626
0.0101788
0.0100736
0.0102134
0.0107953
0.0112476
0.0117328
0.0119522
0.0120335
0.0107389
0.00994686
0.00956988
0.00943558
0.0096267
0.010359
0.0112768
0.012004
0.0123072
0.0124456
0.0109411
0.00995069
0.00928715
0.00903342
0.00902578
0.00960284
0.010979
0.012118
0.0125331
0.0133442
0.0115989
0.0102438
0.00947082
0.00900424
0.00884989
0.00906866
0.0098989
0.0114547
0.0124913
0.0144942
0.0124997
0.0109828
0.0101019
0.00962769
0.00929011
0.00929426
0.00958963
0.0106876
0.0123809
0.0152501
0.0135464
0.0122683
0.0114203
0.0112262
0.0107564
0.0104336
0.0105764
0.0110011
0.0124765
0.0158723
0.0144572
0.0133601
0.0132764
0.0134637
0.0125124
0.0120305
0.0121764
0.0125707
0.0132786
0.014254
0.0146625
0.0147173
0.014654
0.0144979
0.0142846
0.0140599
0.0137713
0.0135336
0.0133844
0.012759
0.0129881
0.0130281
0.0129863
0.0128904
0.0128009
0.0126208
0.0124446
0.0121556
0.0118869
0.0118496
0.0117466
0.0116253
0.0115755
0.0115612
0.0116107
0.0116564
0.0116644
0.0115824
0.0114364
0.0110355
0.010588
0.0103938
0.0102734
0.0102295
0.0103943
0.0107333
0.0109797
0.0112151
0.0112932
0.0108872
0.0100191
0.00962343
0.00940894
0.0093188
0.00939511
0.00980447
0.0104182
0.011093
0.0114144
0.0111298
0.0101719
0.00940867
0.00897348
0.00880338
0.00878748
0.00901588
0.00955925
0.0105778
0.0114832
0.0122891
0.0107186
0.00963791
0.00903003
0.00869872
0.0086653
0.00880477
0.00922749
0.0101133
0.0114968
0.0133522
0.0117494
0.0101955
0.00938652
0.00905516
0.00905826
0.00916774
0.00948511
0.0100767
0.0114341
0.0137993
0.0126359
0.0111091
0.0100904
0.0101274
0.0102736
0.0103818
0.0106216
0.0110105
0.0119435
0.0140247
0.0128344
0.0115636
0.0114141
0.0119809
0.0120759
0.0118606
0.0119426
0.0120663
0.0123625
0.0163488
0.0174151
0.0178074
0.0180639
0.0181185
0.0178814
0.0174743
0.0169025
0.0164575
0.0159241
0.0146475
0.0150865
0.0152709
0.015352
0.0153555
0.0150458
0.0146392
0.0140417
0.0135946
0.0130369
0.0138821
0.0141001
0.0141682
0.0141847
0.014038
0.0138395
0.0134723
0.0130274
0.0125938
0.0120216
0.012678
0.012711
0.012712
0.0126969
0.0126357
0.012532
0.0123536
0.01219
0.0119087
0.0114487
0.0117841
0.0115251
0.0113978
0.011284
0.0111868
0.0111113
0.0110702
0.0110318
0.010966
0.0108711
0.0113402
0.0109058
0.0104886
0.0102529
0.0100637
0.00990557
0.00983264
0.00989265
0.00991059
0.0102415
0.0119491
0.01107
0.0102812
0.00976761
0.0094513
0.00927453
0.00919896
0.00926541
0.00931444
0.00977383
0.0129545
0.0117802
0.0105564
0.00979855
0.00937565
0.0092004
0.00917453
0.0091871
0.00927829
0.0097175
0.0133542
0.0128188
0.0113355
0.0101699
0.00975789
0.00963726
0.00970386
0.00983627
0.0100612
0.0107552
0.0134138
0.013043
0.0117767
0.0106875
0.0106884
0.0107244
0.0106999
0.0107484
0.0108189
0.0113469
0.0133157
0.0130727
0.0116285
0.010938
0.0106179
0.0105507
0.0110222
0.0123873
0.0158443
0.0190121
0.0153717
0.0141641
0.0131813
0.0125549
0.0123683
0.0130352
0.0148697
0.0164257
0.0169669
0.0169297
0.0161844
0.0159719
0.0154549
0.0152492
0.0153203
0.015902
0.0161537
0.0162126
0.0152196
0.0125891
0.0162791
0.0163572
0.0161653
0.0160522
0.016
0.0159833
0.01579
0.0146126
0.0121608
0.0111035
0.0156392
0.0161379
0.0161148
0.0159622
0.015833
0.0155086
0.0144428
0.0124096
0.0111638
0.0105587
0.0144581
0.015411
0.0155842
0.0155265
0.0151587
0.0143979
0.0130686
0.0114811
0.0107533
0.0104714
0.0140184
0.0143951
0.0147213
0.0147186
0.0144166
0.0135763
0.0121637
0.0107746
0.0102384
0.0101774
0.0141225
0.013606
0.0138485
0.0138979
0.0137789
0.0132509
0.0121794
0.0108291
0.010068
0.00999494
0.0145324
0.0136068
0.0132027
0.0130502
0.0129468
0.0127318
0.0122412
0.0111263
0.0102935
0.0103834
0.01393
0.0139821
0.0127803
0.0123709
0.012446
0.0124248
0.0122798
0.0117965
0.0109556
0.0109205
0.0197999
0.0195544
0.018106
0.0168724
0.0163644
0.0168646
0.0164595
0.0147783
0.0134031
0.0117995
0.0182718
0.0171549
0.0162207
0.0154003
0.0150489
0.0152443
0.0160939
0.0160414
0.0154837
0.014262
0.0169387
0.0163022
0.0156283
0.0149858
0.014766
0.0149636
0.0154956
0.0160285
0.015722
0.0145871
0.0158766
0.0156194
0.0149897
0.0144954
0.014529
0.01483
0.0153274
0.0156923
0.0153128
0.0141299
0.015506
0.015302
0.0146123
0.0142752
0.014331
0.014654
0.0148576
0.0149316
0.014319
0.0135346
0.015371
0.014839
0.0140808
0.0139481
0.0141134
0.014247
0.0142823
0.0142933
0.0137155
0.0132895
0.0152537
0.0144995
0.0138217
0.0136458
0.0137643
0.0137684
0.0137837
0.0137202
0.0133484
0.0130501
0.0148731
0.0143722
0.0136793
0.0132887
0.0133247
0.0133265
0.013406
0.0134025
0.0130788
0.012595
0.0142653
0.014354
0.0136395
0.0130205
0.0128111
0.0127815
0.0128763
0.0129778
0.0126602
0.0125549
0.0133724
0.0139378
0.0135557
0.0129614
0.0126326
0.0125618
0.0126781
0.0128698
0.0126834
0.0126468
0.0216478
0.020571
0.0197323
0.0182633
0.0164566
0.0152883
0.0146874
0.0146491
0.0147177
0.0149629
0.0186977
0.0177441
0.0169446
0.0157877
0.0146195
0.0137802
0.0135036
0.0135327
0.0137334
0.0137717
0.017077
0.016635
0.0159361
0.0148067
0.0137921
0.0130052
0.0126116
0.0126846
0.0129705
0.0131968
0.0164223
0.0160953
0.0150797
0.0137352
0.0127069
0.0120888
0.0120917
0.0122822
0.0126849
0.0129946
0.0161468
0.015645
0.0141537
0.0129494
0.0121361
0.011798
0.0119356
0.0122404
0.0126231
0.0129183
0.0159265
0.0150729
0.0135351
0.01247
0.0118052
0.0117162
0.0119113
0.0122903
0.0126364
0.0128708
0.0155327
0.0146881
0.0132796
0.0122467
0.0116951
0.0116884
0.0119663
0.0123357
0.0126039
0.0127454
0.0151522
0.0145156
0.0131916
0.0121669
0.0116762
0.01168
0.0120444
0.0124676
0.0126161
0.0126773
0.0147428
0.0143859
0.0131749
0.0122622
0.0118412
0.0118194
0.0121741
0.0126614
0.0129149
0.0131826
0.0143679
0.0140502
0.0130508
0.0124052
0.0121648
0.0123134
0.0126173
0.0129707
0.0131143
0.0131564
0.0171266
0.0159985
0.014617
0.0136259
0.0129612
0.0123019
0.0118905
0.0120056
0.0125295
0.0129016
0.0172657
0.0159941
0.014248
0.0129169
0.0119853
0.0113501
0.0111313
0.0112028
0.0115361
0.0117761
0.0166548
0.0151489
0.0133172
0.0118998
0.0109033
0.0103665
0.0103264
0.010448
0.0108141
0.0110332
0.0163976
0.0147641
0.0128033
0.0111411
0.0102581
0.00988566
0.00988197
0.0100171
0.0103993
0.0107561
0.0159535
0.0140101
0.0121113
0.0106637
0.00998178
0.00970283
0.00972363
0.00988609
0.0102441
0.0107504
0.0155516
0.0136389
0.0118137
0.0104953
0.00989942
0.00967722
0.00970942
0.00990265
0.0102469
0.0108154
0.0150616
0.0132501
0.0116849
0.0104679
0.0100057
0.00989267
0.00988325
0.0100127
0.0103503
0.0109813
0.0147193
0.0130592
0.0116599
0.0107116
0.0104302
0.010394
0.0103433
0.010313
0.0105492
0.0111733
0.0144694
0.0128489
0.0117406
0.0110681
0.0109252
0.0111202
0.0111329
0.0111089
0.0112638
0.0116344
0.0143388
0.0126799
0.0117704
0.0113914
0.0114131
0.0117491
0.0118374
0.0117656
0.0115659
0.0115238
0.0158698
0.014005
0.0127841
0.0118351
0.0112554
0.0106924
0.0103492
0.0105999
0.0113845
0.0125028
0.0163049
0.0142347
0.0127
0.011504
0.0107563
0.0102367
0.00993674
0.0100009
0.0103913
0.0105812
0.0160869
0.0138269
0.0121825
0.0110185
0.0103494
0.00989336
0.00961557
0.00962062
0.00978631
0.00996948
0.015837
0.0136348
0.011961
0.0107911
0.0101612
0.00975079
0.00948324
0.00939423
0.00946745
0.00965399
0.0154357
0.0132004
0.0116745
0.0106612
0.0100881
0.00971229
0.00945492
0.0093282
0.00936838
0.00960234
0.0151131
0.0129836
0.011538
0.0106134
0.0100912
0.00980154
0.0095677
0.00939136
0.00941491
0.0097575
0.0146965
0.0125789
0.0113932
0.0106354
0.0103463
0.0101304
0.00987934
0.00961864
0.00957329
0.00995428
0.0143802
0.0123729
0.0113255
0.010839
0.0107284
0.0106405
0.0103818
0.0100593
0.00992565
0.0100628
0.0141107
0.0120719
0.0112398
0.0109879
0.0111119
0.0111485
0.010974
0.0107301
0.0107044
0.0108276
0.0139892
0.0118533
0.0111349
0.0110816
0.0113692
0.0114207
0.0112909
0.011097
0.0109767
0.0106501
0.0176752
0.0166428
0.0156489
0.0146189
0.0139512
0.0133939
0.0131711
0.0129065
0.0126938
0.0117378
0.0180361
0.0169952
0.0158835
0.0146003
0.0138005
0.0132435
0.0127796
0.01253
0.0119456
0.0118078
0.0180952
0.01712
0.0161538
0.0147776
0.0138091
0.0131781
0.0125835
0.0120156
0.0115404
0.0107208
0.0179629
0.0171557
0.0164656
0.015248
0.0141648
0.0132299
0.012417
0.011699
0.0109623
0.00997264
0.0176908
0.0170798
0.0165962
0.0155839
0.0144882
0.0134277
0.0123565
0.0115441
0.0107125
0.00962035
0.0174277
0.0167372
0.0166527
0.0159531
0.0148406
0.0137636
0.0124797
0.0115144
0.0106459
0.00954362
0.0172693
0.0162281
0.0165551
0.0161375
0.0152355
0.0142135
0.0129292
0.0118129
0.0110043
0.0099365
0.0172374
0.0153645
0.0160243
0.0162111
0.0154506
0.0147306
0.01345
0.0122249
0.0114615
0.0107192
0.0175966
0.0145329
0.0152462
0.016084
0.0155367
0.0150906
0.0143597
0.0128874
0.0119094
0.011329
0.0177367
0.0139181
0.0139347
0.0155249
0.0155103
0.0152165
0.0149361
0.0144595
0.0134949
0.0127582
0.0180973
0.0158486
0.0149531
0.0144442
0.0139197
0.0134186
0.0127554
0.0120594
0.0118792
0.0121849
0.0178956
0.0160774
0.015065
0.014491
0.0138895
0.01328
0.0125139
0.011792
0.0116542
0.0117933
0.0180676
0.016071
0.014991
0.0144724
0.0138862
0.0132506
0.0124237
0.0116689
0.0113549
0.0112569
0.0181534
0.0158815
0.0148179
0.014453
0.0139306
0.0132642
0.0123811
0.0115404
0.011049
0.0108455
0.0180867
0.0155937
0.0145768
0.0143404
0.0140128
0.0133804
0.0123718
0.01146
0.0108808
0.0104423
0.0175829
0.0151988
0.0142867
0.0142666
0.0141343
0.013585
0.0124717
0.0114279
0.0107927
0.0101593
0.0173251
0.0147151
0.0139837
0.0140998
0.0142081
0.0138024
0.0126795
0.0114472
0.0108106
0.010221
0.0169465
0.0143094
0.0136132
0.0139218
0.0142168
0.01389
0.0129132
0.0116318
0.0110773
0.0106998
0.0168039
0.0139796
0.0132137
0.0136367
0.0141205
0.013902
0.0129956
0.0117495
0.0111688
0.0106399
0.0167787
0.0137592
0.0128506
0.0133467
0.0138074
0.0137527
0.0129898
0.01187
0.0111043
0.0104089
0.0150743
0.0133789
0.0126086
0.0122978
0.012186
0.0121637
0.0123861
0.0131843
0.0135044
0.0136069
0.0148045
0.013674
0.013142
0.0128081
0.0126701
0.0126463
0.012879
0.0134784
0.0137911
0.0144612
0.0155553
0.0142427
0.0136905
0.0133358
0.0132008
0.0132022
0.0135443
0.014163
0.014683
0.0151159
0.0165549
0.014947
0.0142652
0.0139026
0.0137689
0.0139316
0.0143322
0.0146605
0.0147614
0.0145597
0.0174259
0.0156356
0.0148367
0.0144349
0.0142818
0.0143874
0.0145912
0.0146521
0.0144916
0.013034
0.0178888
0.0164476
0.0153945
0.0149067
0.0146639
0.0145847
0.0145768
0.0144893
0.0137688
0.0125333
0.0181807
0.0170573
0.0159296
0.0154306
0.0148968
0.0146639
0.0144999
0.0141047
0.0132161
0.0123471
0.0181174
0.0175638
0.0164991
0.0158018
0.015331
0.0147507
0.0143082
0.0138051
0.0128867
0.011963
0.0179567
0.0177371
0.017005
0.0161491
0.0157419
0.0149435
0.01435
0.0135545
0.012485
0.011942
0.017694
0.0178175
0.0171869
0.0163248
0.015981
0.0153782
0.0146419
0.0136698
0.0125591
0.0123763
0.0106091
0.0106198
0.00981527
0.00945433
0.00917286
0.00931594
0.00986392
0.0105459
0.0110655
0.0115538
0.0111664
0.0105765
0.00978977
0.00953065
0.00943625
0.00972772
0.0103014
0.0108535
0.0114832
0.0124956
0.0117174
0.0107303
0.0101258
0.0099272
0.00989986
0.0101668
0.0106408
0.0113844
0.0122417
0.0126781
0.0122575
0.0112936
0.0107437
0.0105199
0.0104495
0.0106005
0.0113193
0.0121405
0.0124579
0.0122416
0.0126245
0.0119443
0.0114862
0.0112644
0.0111591
0.0115534
0.0122262
0.0124526
0.0124102
0.0113637
0.0129931
0.0124275
0.0121241
0.0120171
0.0120503
0.0123148
0.012497
0.0125916
0.0122583
0.0106897
0.01312
0.0127959
0.0125837
0.0125674
0.0125751
0.0127115
0.0127877
0.0126218
0.0119101
0.0104555
0.0132535
0.0131143
0.0130137
0.0130435
0.0130322
0.0130724
0.0129684
0.0126825
0.0119053
0.0104447
0.013349
0.0137594
0.0135678
0.0134982
0.0134847
0.0133046
0.0131675
0.0128242
0.012004
0.0104895
0.0136743
0.0139807
0.0138636
0.0139445
0.0139233
0.0137645
0.0135965
0.0132075
0.0122961
0.0107348
0.00696958
0.00692075
0.00729255
0.00846023
0.00905406
0.00973833
0.0103246
0.00930816
0.00730242
0.00659785
0.00693456
0.00706017
0.0076449
0.00869958
0.00907273
0.00986411
0.0100732
0.00923698
0.0081177
0.00699647
0.00798141
0.00825012
0.00891779
0.0088619
0.00907792
0.00972092
0.00983584
0.00913035
0.00781317
0.00705989
0.00797008
0.0090834
0.00886465
0.00878967
0.00901371
0.00931202
0.00915158
0.0082304
0.00772315
0.0071279
0.0076037
0.00859578
0.00838519
0.00840926
0.00836493
0.00822251
0.00792859
0.00757773
0.00773481
0.00715747
0.00749961
0.00804971
0.00775567
0.00766583
0.00767928
0.00755729
0.00754288
0.00761808
0.00804458
0.00709567
0.00738223
0.00854495
0.0082361
0.00809988
0.00792856
0.00791148
0.0077531
0.0077585
0.0074584
0.00706135
0.007254
0.00810037
0.0081953
0.00824815
0.00798431
0.00786832
0.0076983
0.00768819
0.00719908
0.00705326
0.00702425
0.00803702
0.00788795
0.0078303
0.00790797
0.0079649
0.00794571
0.0076939
0.00722452
0.00710603
0.0069947
0.0077467
0.00769755
0.00757838
0.00768309
0.00803833
0.00800197
0.00760564
0.00715307
0.0071774
0.00573642
0.00592151
0.00597775
0.00601927
0.00591962
0.00558053
0.00509005
0.00490366
0.00485136
0.0048456
0.00578451
0.00592078
0.0059571
0.00589992
0.00567408
0.00522589
0.00496079
0.00489789
0.00492156
0.00479818
0.00581416
0.00590575
0.00591651
0.00578944
0.00547639
0.00507106
0.0049117
0.00487606
0.00479905
0.0047964
0.00581711
0.00587005
0.00582536
0.00566501
0.00538062
0.00507529
0.0049209
0.00486729
0.00483985
0.0048681
0.00580315
0.00582387
0.00576739
0.00562033
0.00539174
0.00512424
0.00500324
0.00492673
0.00494396
0.00497955
0.00577289
0.0057772
0.00568049
0.00556305
0.00542416
0.00522952
0.00513693
0.00509583
0.00508673
0.00502073
0.00571475
0.00569665
0.00561884
0.0055156
0.00542123
0.00535214
0.00525207
0.00521111
0.00511467
0.00491155
0.00565961
0.005638
0.00548638
0.00504923
0.00509577
0.00520259
0.00519214
0.0051596
0.00490082
0.00482256
0.00560838
0.00534241
0.00491836
0.00484655
0.00484053
0.00493928
0.00500939
0.00489989
0.00483925
0.00481468
0.00547745
0.00517706
0.00486122
0.00488615
0.00485066
0.0049352
0.00490136
0.00473844
0.00468023
0.00459111
0.00626442
0.00638532
0.00642834
0.00646469
0.00646916
0.00643786
0.00631608
0.00598355
0.00543649
0.00516172
0.00623266
0.00628811
0.00629583
0.00629089
0.00622156
0.00603749
0.0056406
0.00526756
0.00503217
0.00494603
0.00611945
0.00611658
0.00606512
0.00594959
0.00565692
0.00532164
0.00505565
0.00486578
0.00478946
0.004778
0.00587958
0.00578674
0.00554845
0.00528232
0.00505286
0.00485115
0.00469612
0.00462426
0.00460155
0.00468424
0.00534235
0.00516812
0.00492989
0.00480417
0.00462575
0.00454089
0.00447493
0.00444855
0.00446467
0.00452714
0.00485102
0.00471365
0.00455283
0.00446605
0.00436372
0.00432733
0.00429152
0.00430117
0.00435284
0.00439584
0.00451138
0.00437994
0.00424621
0.00417446
0.00412754
0.00411621
0.00414185
0.00420526
0.00425591
0.00424744
0.00427585
0.00418763
0.00410984
0.00408178
0.00407121
0.00403802
0.00407832
0.00414269
0.00415807
0.00416803
0.0042103
0.00414699
0.00411544
0.00412689
0.00412999
0.00405456
0.00403169
0.0040961
0.00411646
0.00410505
0.00428927
0.00415763
0.00412764
0.00417034
0.00415663
0.0040631
0.0040303
0.00408083
0.00408188
0.00390058
0.00472856
0.00455502
0.00450531
0.00448493
0.00448545
0.00455147
0.00465054
0.00473308
0.00480844
0.00493094
0.00472404
0.00454059
0.00444288
0.00441364
0.00443407
0.0045167
0.00457976
0.00466958
0.00480361
0.00502695
0.00474126
0.00455668
0.00444695
0.00438221
0.00439682
0.00445855
0.00453264
0.00464474
0.0048046
0.00505911
0.00480666
0.00459114
0.0044993
0.00442618
0.00439271
0.00442265
0.004508
0.00462394
0.00474707
0.00488806
0.00498023
0.00472592
0.00456435
0.00446432
0.00439668
0.00439727
0.00446316
0.00455731
0.00461974
0.00461219
0.00506088
0.0048714
0.0047102
0.0045641
0.00444085
0.00437854
0.00437485
0.00442017
0.00441235
0.00430663
0.00506092
0.00492423
0.00480078
0.00466978
0.00448957
0.00436282
0.00427447
0.00424508
0.00418784
0.00408521
0.00498195
0.00490525
0.00479672
0.00469179
0.00455785
0.00437039
0.00422607
0.0041022
0.00403443
0.00398357
0.00487301
0.00483959
0.00476739
0.00467909
0.00457608
0.00440407
0.00420592
0.00404358
0.0039707
0.00394629
0.00462349
0.00466031
0.00465314
0.00462142
0.00455395
0.004429
0.00421606
0.00403264
0.0039458
0.00393202
0.00825046
0.00838544
0.00859152
0.00886129
0.00903904
0.0093018
0.00971794
0.0104001
0.0116549
0.011232
0.00837474
0.00843364
0.00857306
0.00884615
0.00909712
0.00940402
0.00973465
0.0104131
0.011589
0.0113838
0.00875725
0.00860039
0.00863925
0.00880977
0.00907993
0.00940478
0.00978331
0.0104833
0.0116016
0.0114661
0.00940523
0.00904336
0.00883267
0.00889576
0.00912784
0.00950243
0.00991811
0.0106944
0.0117019
0.0115378
0.00994334
0.00956736
0.0092336
0.00922588
0.00941767
0.00983373
0.0104716
0.011217
0.01183
0.0115607
0.0111193
0.0106603
0.0102333
0.0101496
0.0103349
0.0107917
0.0114335
0.0119627
0.0118512
0.0114926
0.0126614
0.0120049
0.0117115
0.0117177
0.0118074
0.0120642
0.0121434
0.0119962
0.011701
0.0112389
0.0126556
0.0123975
0.0123304
0.0122409
0.0121421
0.011993
0.0119102
0.0116835
0.0113162
0.0108831
0.0114555
0.011481
0.0116279
0.0116607
0.0116623
0.0115264
0.0112966
0.0110494
0.0107605
0.0104231
0.0101666
0.0105223
0.0108235
0.0109776
0.0109828
0.0108308
0.01064
0.0104295
0.0101565
0.00978637
0.00775992
0.0079346
0.00807564
0.00823748
0.00837105
0.00847097
0.00864805
0.00888721
0.00928713
0.0101294
0.00780848
0.00789302
0.00805763
0.00820519
0.00841001
0.00854178
0.00872968
0.00893192
0.00929179
0.0100621
0.00805346
0.00799502
0.0080617
0.00820938
0.00838024
0.0085512
0.00875943
0.00901999
0.00936793
0.0100917
0.00845575
0.00829833
0.00819905
0.00824068
0.00836677
0.00856638
0.008812
0.00911717
0.00946993
0.0101798
0.0087546
0.0086307
0.00847681
0.00842671
0.00845904
0.00862042
0.00894141
0.00931298
0.00975971
0.0103985
0.00933456
0.00924027
0.00906008
0.00890563
0.00885011
0.00896436
0.00926361
0.00965641
0.010141
0.0106386
0.0105928
0.0104201
0.0101173
0.0098878
0.00977313
0.00985015
0.0100658
0.0103543
0.0106047
0.0106998
0.0110651
0.0109044
0.0107223
0.0105736
0.0105817
0.0106303
0.0107107
0.0107589
0.0107136
0.0105699
0.0108347
0.0107823
0.0107649
0.0107529
0.0107283
0.0107121
0.0106621
0.0105881
0.0104438
0.0102202
0.00975122
0.00998953
0.0102686
0.010332
0.0103061
0.0102911
0.0102232
0.0100937
0.00986725
0.00968956
0.00762986
0.0077494
0.00791766
0.00805056
0.00816833
0.00821857
0.00828485
0.00836241
0.00848213
0.00881724
0.00756531
0.0076106
0.00774726
0.00792543
0.00805314
0.00820189
0.00829633
0.00839409
0.0084941
0.00880419
0.00765399
0.00765887
0.0077253
0.00787223
0.00804957
0.00817736
0.00829961
0.00846527
0.00857435
0.00887034
0.00794103
0.00787996
0.00784938
0.00790081
0.00802861
0.00818065
0.00831855
0.00848786
0.00862263
0.00893077
0.00812039
0.00809744
0.00806614
0.00805667
0.0081038
0.00820513
0.00833878
0.00853048
0.00873858
0.00903949
0.0084187
0.00844056
0.00843509
0.00840933
0.00838783
0.00840856
0.00847549
0.00864127
0.00889534
0.00920081
0.00919065
0.00925058
0.00920654
0.00912201
0.00900814
0.00894463
0.0089595
0.00903283
0.00920802
0.0093402
0.00967659
0.00966725
0.00962467
0.00953549
0.00943296
0.00938337
0.00940326
0.00944345
0.00946545
0.00953607
0.00963206
0.00962874
0.0096143
0.00957793
0.0095302
0.00949301
0.00948285
0.00947515
0.00946536
0.0094793
0.00922052
0.00918672
0.00923268
0.0092677
0.00929842
0.00932971
0.00934004
0.00932355
0.00924535
0.00927007
0.00771045
0.00781956
0.00800979
0.00813146
0.00823652
0.00826519
0.00825763
0.0082285
0.00822995
0.00828579
0.00747034
0.00750321
0.00765045
0.00781087
0.00793906
0.00801773
0.00812148
0.00816229
0.00817858
0.00827395
0.00746866
0.00748039
0.00754926
0.00770149
0.0078576
0.00795186
0.00805349
0.00815336
0.00819698
0.00833999
0.00760333
0.00760957
0.00763207
0.00771311
0.00784919
0.00796338
0.00806916
0.00818214
0.00824454
0.008386
0.00775368
0.00777325
0.00782074
0.00785391
0.00793247
0.0080256
0.00811052
0.0082149
0.00829121
0.00843466
0.00790693
0.00799553
0.00809139
0.00816482
0.00820385
0.00826211
0.00829825
0.00831998
0.00837253
0.00849752
0.00830972
0.00852507
0.00863938
0.00866491
0.0086535
0.00864097
0.00860077
0.00855685
0.00857481
0.0086246
0.00874005
0.0088737
0.00890687
0.00889629
0.00886302
0.0087871
0.00873903
0.00870831
0.00872151
0.00874985
0.00884999
0.00888834
0.00889078
0.00887779
0.00883888
0.00879225
0.00874719
0.00872712
0.00871657
0.00872905
0.00876082
0.00872899
0.00867823
0.0086479
0.00863437
0.00863485
0.00862572
0.00863674
0.00861568
0.00864848
0.00794502
0.00803125
0.00825573
0.00836506
0.00843988
0.00842492
0.00836827
0.00827912
0.00815912
0.00806214
0.00754097
0.00756159
0.0077109
0.00787201
0.00798436
0.00801549
0.00802345
0.00802557
0.00798041
0.00801095
0.00736965
0.00738216
0.0074801
0.00764885
0.00777558
0.00783935
0.00788432
0.00793661
0.00795102
0.00802425
0.00738264
0.0074052
0.00748967
0.00761704
0.00774478
0.00783266
0.00789073
0.00795534
0.00799049
0.00806875
0.00747594
0.00754358
0.00763145
0.00773322
0.0078365
0.00792392
0.00797335
0.00802409
0.00805917
0.0081095
0.00757555
0.00769704
0.00786797
0.00801676
0.0081062