/*--------------------------------*- C++ -*----------------------------------*\
  =========                 |
  \\      /  F ield         | OpenFOAM: The Open Source CFD Toolbox
   \\    /   O peration     | Website:  https://openfoam.org
    \\  /    A nd           | Version:  9
     \\/     M anipulation  |
\*---------------------------------------------------------------------------*/
FoamFile
{
    format      ascii;
    class       volScalarField;
    location    "80";
    object      interfaceCompositionPhaseChange:dmdtf.gasAndLiquid;
}
// * * * * * * * * * * * * * * * * * * * * * * * * * * * * * * * * * * * * * //

dimensions      [1 -3 -1 0 0 0 0];

internalField   nonuniform List<scalar> 
137980
(
-0.00045075
-6.64179e-05
0.00167132
0.00420469
0.0058228
0.00641199
0.00459348
0.000839902
0.000186299
-0.000185983
-0.00189621
-0.000880692
0.00180107
0.00360042
0.00369409
0.00273957
0.000859423
0.000410144
0.00014428
-4.48312e-05
-0.00344564
-0.00177361
0.00230985
0.00348029
0.00272669
0.00119284
0.000488484
0.000419167
0.000224434
6.12287e-05
-0.00409295
-0.00206667
0.00270212
0.00405291
0.00303745
0.000634056
0.000407987
0.000395034
0.000283639
0.000156658
-0.00382957
-0.0018997
0.00312951
0.00483007
0.00367606
0.00064058
0.000385521
0.000311448
0.000284033
0.000219314
-0.00258425
-0.00157589
0.00259406
0.00546088
0.00441887
0.00181018
0.00037576
0.000311206
0.000230635
0.000176748
-0.000853112
-0.000483474
0.00143854
0.00516568
0.0054432
0.00338721
0.000314028
0.000299214
0.000259608
0.000207711
-0.000762274
0.000316734
0.00133485
0.00380303
0.00542833
0.00456816
0.00232147
0.000209786
0.000180355
0.000162881
-0.00123905
-0.000231475
0.00131646
0.00346568
0.00542734
0.00499044
0.00371709
0.00210479
0.00126983
0.00186978
-0.00152042
-0.000755689
0.0015085
0.00330507
0.00497032
0.00540849
0.00501115
0.00437156
0.00293393
0.00357116
9.0544e-05
0.000777449
0.00279987
0.00456096
0.00611519
0.00755453
0.00704199
0.00310061
-0.000775194
-0.000424453
-0.00077006
0.000608116
0.002826
0.00340869
0.00304681
0.0028854
0.00238892
0.00113196
-9.91892e-05
-0.000363691
-0.00197793
0.000469524
0.0030859
0.00282222
0.001348
0.000423227
0.000398434
0.000189269
-9.45622e-05
-0.000324288
-0.00241436
0.000357684
0.00351785
0.00283575
0.000561083
0.000364546
0.000342693
0.000172461
-6.88139e-05
-0.000283172
-0.00234216
0.000233253
0.00387284
0.00356943
0.000586483
0.000342438
0.000269402
0.000168029
-3.44991e-05
-0.000219779
-0.00171928
-0.000242653
0.00326234
0.00477525
0.00194932
0.000318379
0.00024611
0.000170691
3.45065e-05
-0.000119518
-0.0012061
-0.00042095
0.00144982
0.00485102
0.00387316
0.000268077
0.000240853
0.00017452
0.00011905
1.2491e-05
-0.00180098
-0.000699032
0.000556267
0.00289436
0.00452848
0.0017296
0.000183886
0.00013334
9.31721e-05
9.42887e-05
-0.00229334
-0.00169791
-0.000412966
0.00140775
0.00377443
0.00335025
0.000465527
0.000117732
7.35054e-05
6.73868e-05
-0.0024689
-0.00226583
-0.000890929
0.000907331
0.00289339
0.00369218
0.00305504
0.00170801
0.000104617
0.000689077
0.000639627
0.00201823
0.00347574
0.00526451
0.008299
0.012556
0.0126685
0.00300557
-0.00323871
-0.00053779
0.000209246
0.00205759
0.00333497
0.00403001
0.00476932
0.00792272
0.00812471
0.00151201
-0.00158168
-0.000467353
-0.000161209
0.00211896
0.00332656
0.00325923
0.00302912
0.00491207
0.00527154
0.000270774
-0.000218167
-0.000442682
-0.000437664
0.00196089
0.00328553
0.00260966
0.00188931
0.00210881
0.00201744
1.96623e-05
-0.000249717
-0.000445233
-0.00068788
0.00150793
0.00303921
0.00209464
0.000755907
0.0002739
0.000210972
7.68975e-06
-0.000237572
-0.000439805
-0.00125494
0.000281853
0.00229687
0.00213867
0.000219229
0.000220845
0.000184131
1.22835e-05
-0.000206305
-0.000413373
-0.00166402
-0.000786554
0.000764602
0.00222342
0.000193847
0.000161051
0.000165114
3.62402e-05
-0.000168606
-0.000357862
-0.00248127
-0.00153684
-0.000257289
0.00127196
0.000481526
9.65517e-05
7.79196e-05
6.2344e-05
-0.000101653
-0.000286591
-0.00265086
-0.00261027
-0.00129787
0.000330628
0.000907844
7.40689e-05
7.96861e-06
3.51352e-06
-3.66999e-05
-0.000185835
-0.00327729
-0.00329636
-0.001957
-0.000346475
0.00111416
9.43443e-05
5.68624e-05
-6.77014e-06
-4.66204e-05
-0.000194885
0.00150342
0.00336479
0.00446161
0.00619326
0.0093692
0.013637
0.00703306
-0.000672167
-0.00140194
-0.000555813
0.00144139
0.00301228
0.00377926
0.0045664
0.00742071
0.00832854
0.0020907
-0.00150951
-0.000468703
-0.000478528
0.00120707
0.00270638
0.0033974
0.00363901
0.00565111
0.00520182
-0.000238685
-0.000221314
-0.000464532
-0.000457513
0.000808171
0.00231629
0.00302787
0.00284354
0.00408809
0.00321397
-0.0007432
-0.000277231
-0.000475368
-0.000467364
2.95326e-06
0.00160694
0.00239191
0.0021361
0.00225895
0.00158593
-5.88227e-05
-0.000294045
-0.000481727
-0.000503165
-0.001007
0.000325137
0.00149497
0.00161845
0.000928425
0.000134264
-5.30154e-05
-0.000277784
-0.000467458
-0.000541045
-0.0015877
-0.000782354
0.000215705
0.00090898
0.000190556
0.000133215
-3.2156e-05
-0.000234695
-0.00042445
-0.000534536
-0.00217427
-0.00154563
-0.000625367
6.8929e-05
6.92484e-05
0.000104243
7.85384e-06
-0.000173801
-0.000355734
-0.000487179
-0.00183157
-0.00220297
-0.00128919
-0.000256649
5.2088e-06
2.45979e-05
3.03571e-05
-9.99747e-05
-0.00025977
-0.00039212
-0.00287393
-0.0024072
-0.00153637
-0.000498282
-5.13861e-06
3.86764e-05
5.91686e-05
-2.44335e-05
-0.000112096
-0.000303584
0.00237765
0.00431784
0.00508126
0.00698092
0.00931331
0.00473775
-0.00397064
-0.00564466
-0.000721904
-0.000319471
0.00206138
0.00325205
0.00418729
0.00590408
0.00420745
-0.00225952
-0.0047132
-0.000510826
-0.000558077
-0.000268376
0.00148577
0.00221605
0.00268484
0.00318955
0.00022599
-0.00491986
-0.000350598
-0.000520439
-0.000410246
-0.00023887
0.000935406
0.00128785
0.00124894
0.00111088
-0.000879203
-0.00165848
-0.000411159
-0.000485535
-0.000325747
-0.00017973
0.00018607
0.000667316
0.000458543
0.000167899
-9.1512e-05
-0.000285972
-0.000447658
-0.000504813
-0.000331294
-0.000182699
-0.000899587
-2.19309e-05
0.000156745
1.99248e-05
-9.4328e-05
-0.000271731
-0.000439636
-0.00051156
-0.000371149
-0.000232452
-0.00166586
-0.000862379
-0.000103517
7.68083e-06
-8.54125e-05
-0.00023683
-0.000397581
-0.000495313
-0.000457801
-0.00032808
-0.00221023
-0.00182597
-0.000484373
-4.84725e-05
-5.78296e-05
-0.00018065
-0.00032415
-0.00043873
-0.000512335
-0.00049001
-0.0021772
-0.00246292
-0.000976067
-0.000124078
-6.99975e-05
-0.000139241
-0.000233458
-0.000345801
-0.000442047
-0.000448088
-0.00257094
-0.00210457
-0.000978933
-0.000141706
-7.6366e-05
-7.3475e-05
-0.000140736
-0.000230278
-0.000287614
-0.000305698
0.0036776
0.00413236
0.0026408
0.000323863
-0.00361065
-0.00972569
-0.00503699
-0.000732605
-0.00046242
-0.000379737
0.00369532
0.00348723
0.00185035
-0.00275427
-0.00916357
-0.00488338
-0.000555061
-0.000519228
-0.000373945
-0.000329857
0.00232469
0.00159588
-0.00146403
-0.00670735
-0.00433875
-0.000459086
-0.000471933
-0.000321098
-0.000247035
-0.000181322
0.00060209
-0.000364297
-0.00243224
-0.0024485
-0.000413092
-0.00045224
-0.000332303
-0.000204024
-0.000139139
-0.00184723
-1.10505e-07
-8.63627e-05
-0.000215716
-0.000363472
-0.000438895
-0.000402822
-0.000237632
-0.00013483
-0.000579125
0.000160516
-4.71673e-05
-0.000121041
-0.000234506
-0.000355405
-0.000405524
-0.000339998
-0.000188251
-0.000104933
-0.0010512
-6.97685e-05
-0.000119123
-0.000143396
-0.000234061
-0.000330899
-0.000371569
-0.000318475
-0.000191236
-0.000110054
-0.00109355
-0.000665793
-0.00020074
-0.00017778
-0.000242705
-0.000308399
-0.00035122
-0.000300535
-0.000192661
-0.000117242
-0.000924819
-0.00212301
-0.000217576
-0.00024769
-0.000248432
-0.000277578
-0.000318345
-0.000265818
-0.000198023
-0.00013444
-0.00031788
-0.000417187
-0.00151352
-0.000275339
-0.000290958
-0.000259688
-0.000264449
-0.000228496
-0.000179569
-0.000137505
-8.15468e-05
4.23679e-05
-0.00496976
-0.00716264
-0.0103069
-0.00863154
-0.000443254
-0.000555437
-0.000481281
-0.000403151
-0.000349543
-0.000335301
-0.00432463
-0.00839768
-0.00893362
-0.000426609
-0.000508259
-0.000431215
-0.00036277
-0.00030352
-0.000227152
-0.000212241
-0.00356362
-0.00664023
-0.000370419
-0.000466845
-0.000424028
-0.000311633
-0.000274204
-0.000204344
-0.00304784
-0.00380369
-0.00286909
-0.0014324
-0.000416288
-0.000438563
-0.000326048
-0.000246947
-0.000202869
-0.00349335
-0.00271403
0.00154218
-0.000248824
-0.00035144
-0.000422861
-0.000393755
-0.000276642
-0.000201574
-0.00295475
-0.00278344
0.00406405
0.00764955
-0.000290394
-0.000366316
-0.000394464
-0.000346353
-0.000233335
-0.000738004
-0.00288733
0.00275047
0.00699159
0.00808254
-0.000302216
-0.00035157
-0.000373029
-0.000302859
-0.000191905
-0.00254226
-0.000689075
0.00446322
0.00732881
0.00121334
-0.000298272
-0.000337717
-0.000333603
-0.000253001
-0.000145511
-0.00156063
0.00104834
0.00453595
0.00653305
-0.00514302
-0.000311025
-0.000327561
-0.000311925
-0.000232338
-0.000132744
-0.000899128
0.00115531
0.00469945
0.00666361
0.000277067
-0.000362631
-0.000277347
-0.000261372
-0.000198092
-0.000112219
-8.82261e-05
0.00106827
0.00452627
0.0073934
0.00638704
-0.000500971
-0.000475206
-0.000431301
-0.000402793
-0.000372186
-0.000341023
-0.00030209
-0.000270732
-0.000248523
-0.000237399
-0.000532199
-0.000454508
-0.00040259
-0.0003427
-0.0014575
-0.00355735
-0.00407239
-0.00358612
-0.00295144
-0.00317107
-0.000508057
-0.00125728
-0.0046545
-0.00638557
-0.00611153
-0.00385615
-0.000879518
0.00128422
0.00235353
0.00278391
-0.00459287
-0.00596416
-0.00778174
-0.00650625
-0.00169373
0.00248773
0.00595379
0.00862817
0.00974646
0.00943334
-0.00501211
-0.0070275
-0.0067698
-0.00250545
0.00107771
0.00412828
0.00718173
0.00899559
0.00863101
0.00917305
-0.0034738
-0.00599256
-0.00478766
-0.00137311
0.000894523
0.00336782
0.00369653
-0.00132364
-0.00629182
-0.00632392
-0.000960177
-0.00415348
-0.00341884
-0.00112395
0.000613165
0.00295101
0.00436735
0.00160142
-0.00395376
-0.0122149
-0.000333709
-0.00222282
-0.00269925
-0.000851229
0.00138892
0.00423358
0.00817855
0.0117749
0.0126444
-0.00325533
-0.000330985
-0.000233217
-0.00180495
-0.000784965
0.00109365
0.00445873
0.0111697
0.0186102
0.0253775
0.0204634
-0.000262958
-0.000170299
-0.000515785
-0.000341279
0.000873195
0.00384919
0.010516
0.0171947
0.0216785
0.0242899
-0.000422034
-0.000364031
-0.000342067
-0.00030626
-0.000248448
-0.000193883
-0.000161682
-0.000145818
-0.000156997
-0.000195279
-0.00696085
-0.00717308
-0.00599024
-0.00442916
-0.00257972
-0.00114035
-0.00041298
0.000167468
0.000179216
-0.000123218
-0.00649943
-0.00561327
-0.00345206
-0.00144186
6.43447e-05
0.00055001
0.000960467
0.00184199
0.00285265
0.0028401
-0.00531263
-0.00384798
-0.00196825
-0.000580441
-0.000292427
-0.00194439
-0.00333784
-0.00431576
-0.00553914
-0.00423684
-0.00485
-0.00327831
-0.00127877
0.000833673
0.00101162
-0.000483697
-0.0022142
-0.00540061
-0.00879768
-0.0101466
-0.00462832
-0.00335934
-0.000581937
0.00250452
0.00482973
0.00594998
0.00499095
0.00192399
-0.00312076
-0.00925194
-0.00409982
-0.00304982
-0.000762061
0.00331616
0.00670918
0.0100915
0.0136814
0.015911
0.0147773
0.00332535
-0.00355223
-0.00226726
-0.000708476
0.00286942
0.00666203
0.0105694
0.0147296
0.0195528
0.0240496
0.0203366
-0.00306863
-0.00223605
-0.000586014
0.00260628
0.00530534
0.00987088
0.0143737
0.0194419
0.0250564
0.0268347
-0.000273137
-0.000360195
0.000689181
0.00220045
0.00274663
0.00689819
0.00730348
0.00830337
0.0138541
0.0188434
-0.00211136
-0.000434695
-0.000411612
-0.000395654
-0.000370325
-0.000348038
-0.000317413
-0.000302267
-0.000313974
-0.000355882
-0.00759894
-0.00980807
-0.00881528
-0.00873474
-0.00745211
-0.00621476
-0.00411031
-0.00259507
-0.00173618
-0.00235529
-0.00373333
-0.00530107
-0.00528148
-0.00669265
-0.00707397
-0.00705353
-0.0061124
-0.00497879
-0.00405812
-0.00388061
-0.00103562
-0.000462233
-0.000619478
-0.0013105
-0.00362793
-0.00593475
-0.00678925
-0.00731968
-0.00738169
-0.00771062
0.000840856
0.0026487
0.00297363
0.00318458
0.00302578
0.00174574
0.00014634
-0.00180989
-0.00438114
-0.00619441
0.00127749
0.00361385
0.00490723
0.00549012
0.00703366
0.00876083
0.00998555
0.010018
0.00824838
0.0007044
-0.00266048
0.0026469
0.00477078
0.00619786
0.00824433
0.0109081
0.0138481
0.0161203
0.0169099
0.0135497
-0.00618007
0.000576333
0.00453837
0.00590352
0.00795729
0.0102705
0.0131669
0.0159317
0.0174908
0.0178379
-0.00694392
-0.00220622
0.00286234
0.00550936
0.00661833
0.00796228
0.0103101
0.0118235
0.00987708
0.0146623
-0.00229494
0.00104257
0.00428076
0.00516429
0.00422197
0.0054875
0.00586503
0.00133149
-0.000600253
0.00621441
-0.000624993
-0.000651731
-0.00062068
-0.000567624
-0.000525855
-0.000498438
-0.000481213
-0.00048148
-0.000499124
-0.000549967
-0.000572992
-0.000614206
-0.000616099
-0.000612664
-0.000579709
-0.000547002
-0.000503962
-0.000480466
-0.000469392
-0.00150541
-0.00732391
-0.00845156
-0.00863089
-0.00918429
-0.00894054
-0.00924331
-0.00919844
-0.00888039
-0.00810163
-0.00756502
-0.00706083
-0.010311
-0.0114294
-0.0145159
-0.0153922
-0.0152103
-0.0132903
-0.00992871
-0.00606423
-0.00206779
-0.00403284
-0.00562374
-0.00634188
-0.00799261
-0.00910032
-0.00945794
-0.00841529
-0.00534115
-0.00123699
0.00375421
-0.000129161
2.60471e-05
0.000112247
-6.8975e-05
9.08176e-05
0.000521023
0.0014615
0.00296678
0.00551246
0.0110245
0.000564174
0.00312146
0.0040019
0.004656
0.00613565
0.00834036
0.0108738
0.0132895
0.0146643
0.0162972
-0.00427757
0.00225435
0.00504584
0.00659977
0.0082125
0.0102922
0.0128009
0.0151926
0.0161404
0.0175899
-0.00848551
-0.0030679
0.00399406
0.0069293
0.0083267
0.00970646
0.0116412
0.0135001
0.0119912
0.0129868
-0.00607315
-0.00350465
0.00479411
0.00736299
0.00694472
0.00765679
0.00712299
0.00378654
0.000438839
0.00491867
-0.00370211
-0.0020407
-0.00308592
-0.00227967
-0.00146439
-0.000252237
-4.35529e-05
-6.60072e-05
-0.000122662
-0.000215428
-0.000261646
-0.00019231
-0.00016844
-0.000126066
-7.18646e-05
-6.43767e-05
-8.38515e-05
-0.000148286
-0.0003476
-0.000657153
-0.000329851
-0.000277581
-0.000216899
-0.000180627
-0.000142965
-0.000143574
-0.000207261
-0.000430417
-0.00064589
-0.000681127
-0.000342764
-0.000335669
-0.000309663
-0.000301427
-0.000285595
-0.000343408
-0.000462991
-0.000543833
-0.00406348
-0.0135486
-0.000312112
-0.000351233
-0.000394762
-0.000428162
-0.000474748
-0.000509166
-0.000503511
-0.0102596
-0.0142048
-0.0101195
-0.000274331
-0.000322222
-0.000358501
-0.000402295
-0.000453726
-0.00594361
-0.0144462
-0.0168806
-0.0119113
-0.00509943
-0.00233961
-0.00180019
-0.000299623
-0.000335507
-0.00280192
-0.0104674
-0.0158665
-0.0133496
-0.00632526
0.00197063
-0.00281158
-0.00297725
-0.00284369
-0.00242271
-0.00399764
-0.00770045
-0.0103067
-0.00779868
-0.00121947
0.00640806
-0.0037352
-0.00224546
-0.00289419
-0.00284862
-0.00309362
-0.00345653
-0.00321886
-0.00222202
0.00130661
0.00832174
-0.00114699
-0.00132984
-0.00109707
-0.00138885
-0.00154935
-0.0012521
-0.000290176
0.00131517
0.00223054
-5.49075e-05
-0.000748198
-0.000466685
-0.000540855
-0.00127809
-0.00241213
-0.00031719
-0.000265392
-0.000183021
-0.000147981
-7.52368e-05
-0.000547946
-0.000572411
-0.000527701
-0.00499559
-0.0043738
-0.00142565
-0.000294188
-0.000273059
-0.000231571
-0.000164098
-0.000688284
-0.000617661
-0.0022707
-0.00610876
-0.00526441
-0.00326854
-0.000273984
-0.00031238
-0.000306119
-0.000256961
-0.000728906
-0.000590323
-0.00619943
-0.00670324
-0.0055005
-0.00400166
-0.0019506
-0.00036737
-0.000383026
-0.000324531
-0.00066971
-0.00466754
-0.00703344
-0.00663937
-0.00602904
-0.0051997
-0.0045472
-0.00298569
-0.000559681
-0.000363473
-0.000602202
-0.00584846
-0.0068076
-0.00654535
-0.00679846
-0.00720134
-0.00762076
-0.00647503
-0.00408578
-0.00100396
-0.000557124
-0.00619101
-0.00617647
-0.0060631
-0.0069351
-0.00816996
-0.00924022
-0.00977546
-0.00863695
-0.00669965
-0.000560706
-0.00580949
-0.00488229
-0.00473021
-0.00574954
-0.00733487
-0.00929415
-0.0114109
-0.0117765
-0.0117419
-0.00560583
-0.00528392
-0.00349229
-0.00290355
-0.00367807
-0.00525382
-0.00713209
-0.0101554
-0.0112449
-0.00798013
-0.00937586
-0.00548614
-0.00316952
-0.00157133
-0.00178476
-0.002667
-0.00387444
-0.0067651
-0.00972295
-0.00858307
-0.00108774
-0.000684577
-0.000679731
-0.000624151
-0.000543426
-0.00521342
-0.00547831
-0.00479075
-0.00361828
-0.00367418
-0.000746618
-0.000718457
-0.000685436
-0.00447114
-0.0114147
-0.0108123
-0.00917752
-0.00837903
-0.00751606
-0.00684715
-0.000881042
-0.000768952
-0.00803053
-0.0128291
-0.0120011
-0.0102991
-0.0093813
-0.00901326
-0.00871039
-0.00776882
-0.000824656
-0.00605214
-0.012687
-0.0117885
-0.00977459
-0.00821221
-0.00808255
-0.00840423
-0.00871473
-0.00754088
-0.000702105
-0.00986801
-0.0112031
-0.00897095
-0.00707951
-0.00641372
-0.00714495
-0.00848647
-0.00922763
-0.00786914
-0.00058452
-0.010129
-0.0087603
-0.00636418
-0.005807
-0.0059418
-0.00718394
-0.00952065
-0.00993755
-0.008692
-0.00194237
-0.00852612
-0.00646285
-0.00516844
-0.00539085
-0.00622139
-0.00773305
-0.00968264
-0.0104572
-0.0100062
-0.00504705
-0.00638455
-0.00507614
-0.00392981
-0.00445993
-0.00594071
-0.00732769
-0.00980938
-0.0108464
-0.0107132
-0.00588864
-0.00495811
-0.00380619
-0.00298755
-0.00382939
-0.00515842
-0.00684238
-0.00982705
-0.00984014
-0.00840435
-0.00440179
-0.00454918
-0.00353821
-0.00263879
-0.0032461
-0.00427011
-0.00604626
-0.00889282
-0.00897542
-0.00725671
-0.000471896
-0.00505766
-0.00924398
-0.00988307
-0.0101789
-0.00988647
-0.00772181
-0.00856499
-0.00861511
-0.00539763
-0.00039886
-0.00563937
-0.00964005
-0.00962399
-0.00922147
-0.00752928
-0.00600095
-0.00610866
-0.00648626
-0.00612297
-0.000382314
-0.00662601
-0.00825384
-0.00758303
-0.00683491
-0.00595366
-0.00502683
-0.00452609
-0.005217
-0.00564541
-0.000363813
-0.0068002
-0.00672967
-0.00612772
-0.00576092
-0.00512045
-0.00383985
-0.00358626
-0.00419845
-0.00504319
-0.000317202
-0.00610898
-0.0052723
-0.00514008
-0.00481627
-0.00538669
-0.0039067
-0.00328973
-0.00343517
-0.00501944
-0.000270463
-0.00529333
-0.00414778
-0.00449305
-0.00444119
-0.00494014
-0.00459651
-0.00355001
-0.00329486
-0.0053522
-0.000233342
-0.00407427
-0.00375595
-0.0041247
-0.00422083
-0.00477539
-0.00511912
-0.00444661
-0.00433739
-0.00655398
-0.00020693
-0.00301115
-0.00341478
-0.00413004
-0.00457041
-0.00542939
-0.00608692
-0.00577853
-0.00546874
-0.00673007
-0.000202611
-0.0023638
-0.00314271
-0.00413154
-0.00506568
-0.00579044
-0.00652778
-0.00731518
-0.00709468
-0.00639859
-0.000208807
-0.00268945
-0.00328333
-0.00426078
-0.0052353
-0.00538541
-0.00561421
-0.00598011
-0.00576605
-0.00485529
-0.000407062
-0.000975441
-0.00658
-0.00564364
-0.00455389
-0.00357494
-0.00230696
-0.000639313
-0.00129608
-0.000937483
-0.000328789
-0.000306422
-0.00639551
-0.00539834
-0.00375349
-0.00247221
-0.00145835
-0.000258642
-0.000385752
-0.0007895
-0.000310709
-0.000280591
-0.00582077
-0.00455891
-0.002962
-0.00227131
-0.00177023
-0.000215409
0.00025447
9.28627e-05
-0.000297377
-0.000262392
-0.0055208
-0.00407041
-0.00275381
-0.00243107
-0.00224035
-0.000952672
0.000322424
0.000676464
-0.00028208
-0.000240202
-0.00438142
-0.00395127
-0.00277331
-0.0024574
-0.00229334
-0.0017059
0.000372907
0.00127929
-0.000267795
-0.000219647
-0.00336628
-0.00392033
-0.00287265
-0.00252851
-0.0023071
-0.00185142
0.000620887
0.001505
-0.000250797
-0.00020097
-0.00193298
-0.0037923
-0.00302896
-0.00265853
-0.00251298
-0.00205491
-1.13923e-05
0.00105727
-0.000231733
-0.000191957
-0.000174855
-0.00326154
-0.00287124
-0.00256636
-0.00256817
-0.00249063
-0.001094
0.000419712
-0.000221158
-0.000194169
-0.000182098
-0.00230238
-0.00227431
-0.00195779
-0.00193882
-0.0020114
-0.00205933
-0.00138121
-0.0002192
-0.000214504
-0.000197543
-0.00117286
-0.00134861
-0.0010764
-0.00111952
-0.00115758
-0.00100177
-0.000446503
-0.000303675
-0.000241531
-0.000205011
-0.00211807
-0.00280901
-0.00251746
-0.000501013
0.00339417
0.00889593
0.00458752
-0.000264976
-0.000216974
-0.00036918
-0.00184313
-0.0020623
-0.00137168
0.000214686
0.00258683
0.00543425
0.00493377
-0.000255707
-0.000194723
-9.19632e-05
-0.00104897
-0.00113851
-0.000294082
0.000786758
0.00260031
0.00465706
0.00638532
-0.000261709
-0.000191154
-8.212e-05
-0.000491267
-0.000710361
-1.2223e-05
0.00110665
0.00244464
0.00407684
0.00647168
-0.000274503
-0.000202261
-8.18778e-05
-7.39515e-05
-0.000637415
-0.000162946
0.000810986
0.00179129
0.0029106
0.0049923
-0.000294278
-0.000225596
-8.91958e-05
-4.39914e-05
-0.000657448
-0.000619122
0.000218007
0.00100204
0.00177144
0.00301769
-0.000311129
-0.000257902
-0.000109213
-5.1694e-05
-0.000560892
-0.00119599
-0.000588033
0.000153409
0.000562208
0.00112357
-0.000306767
-0.000283515
-0.000149039
-6.46398e-05
-0.000266239
-0.00157315
-0.00196937
-0.00115848
-0.000797274
-0.000485817
-0.000291282
-0.000306452
-0.000197554
-7.36514e-05
-7.97064e-05
-0.00124486
-0.00250041
-0.0028483
-0.00225282
-0.00292784
-0.000301125
-0.000331169
-0.000217111
-6.97591e-05
-7.78821e-05
-0.000590301
-0.00153709
-0.00282685
-0.00335678
-0.000454135
-0.0002295
-0.000357846
-0.00313579
-0.00444032
-0.00415285
-0.00309863
-0.00248725
-0.00217589
-0.00218119
-0.00100753
-0.000222472
-0.000331578
-0.00028076
-0.00293277
-0.00330922
-0.00249277
-0.00255781
-0.00230679
-0.00145045
-0.000410836
-0.00014805
-0.000306857
-0.000252498
-0.00202366
-0.00264795
-0.00181908
-0.00195615
-0.00194216
-0.000997733
-0.000185455
-0.000131059
-0.00029021
-0.000229331
-0.00150172
-0.00205526
-0.00149893
-0.00157539
-0.00130419
-0.00121635
-0.000508713
-0.00013713
-0.000273411
-0.000206569
-0.00109371
-0.00145506
-0.00122221
-0.0012953
-0.000970071
-0.000786352
-0.00113745
-0.000185105
-0.000268458
-0.000185051
-0.000801571
-0.000903538
-0.000972296
-0.000928849
-0.000718134
-0.000399308
-0.00115002
-0.00021551
-0.0002536
-0.000167067
-0.000593594
-0.000457357
-0.000639232
-0.000513906
-0.000435055
-0.000265466
-0.000662913
-0.000246732
-0.000243692
-0.000151543
-0.000561815
-0.000108699
-0.000328748
-0.00031527
-0.000263684
-0.000406591
-0.00048902
-0.00025664
-0.000239267
-0.000146092
-0.00065845
4.29015e-05
-0.000149538
-0.000337229
-0.0004899
-0.000639158
-0.000639896
-0.000229759
-0.000231031
-0.000150638
-0.00101219
-2.09069e-05
4.00277e-05
4.77604e-05
-0.000131239
-3.51001e-05
0.000306356
-0.00381552
-0.00523224
-0.00452629
-0.00376001
-0.00303869
-0.00258909
-0.00364146
-0.0046243
-0.00471679
-0.000404637
-0.00575999
-0.00544568
-0.00491443
-0.00425586
-0.00373465
-0.00360987
-0.00427932
-0.00503925
-0.00384441
-0.000374471
-0.00296558
-0.00435441
-0.00475239
-0.00496357
-0.00512454
-0.0054729
-0.00582458
-0.00420947
-0.000340809
-0.000412024
-0.000254296
-0.00167033
-0.00362067
-0.0051167
-0.0061736
-0.00621654
-0.00375837
-0.000326627
-0.000403394
-0.000410821
-0.000285566
-0.000235843
-0.00078053
-0.00356432
-0.00521108
-0.00394112
-0.000317501
-0.000360594
-0.000353035
-0.000371666
-0.000304312
-0.000264148
-0.000239182
-0.000241153
-0.000811475
-0.000791934
-0.000364594
-0.000335959
-0.000316566
-0.00809834
-0.000314422
-0.000275024
-0.000252453
-0.000251861
-0.000293388
-0.000361951
-0.000560574
-0.00129835
-0.00637458
-0.0105483
-0.000305949
-0.000283086
-0.000260927
-0.00026375
-0.000288045
-0.000354314
-0.00343419
-0.00648248
-0.0110128
-0.00995143
-0.0002982
-0.00028879
-0.000263196
-0.000260773
-0.000285854
-0.00032652
-0.00323422
-0.00965598
-0.0129099
-0.00951136
-0.000305962
-0.000280978
-0.000257467
-0.000248515
-0.000270453
-0.000310814
-0.00148759
-0.00880453
-0.00870192
-0.00677416
-0.00334958
-0.00858652
-0.00744077
-0.00746533
-0.00954604
-0.0113452
-0.0128132
-0.0122794
-0.00255842
-0.000855971
-0.00761668
-0.0121867
-0.010449
-0.0100396
-0.011863
-0.013818
-0.0152313
-0.0131032
-0.000952483
-0.000786987
-0.0101347
-0.0119544
-0.0113292
-0.0118024
-0.0141091
-0.0166235
-0.0170924
-0.0105166
-0.000937858
-0.000752042
-0.00894865
-0.0109968
-0.0115077
-0.013473
-0.0167149
-0.0181549
-0.0136426
-0.000985591
-0.000729416
-0.000624051
-0.00935832
-0.0106411
-0.0111385
-0.0133873
-0.0161576
-0.014097
-0.00365075
-0.000749636
-0.000640992
-0.00684862
-0.0104819
-0.0100718
-0.00962347
-0.00998527
-0.0103741
-0.00562787
-0.000839344
-0.000652008
-0.000531186
-0.015695
-0.01414
-0.00894093
-0.00639252
-0.00300466
-0.00067021
-0.000841606
-0.000760073
-0.000632677
-0.00663081
-0.0196456
-0.0168269
-0.00842627
-0.00289739
-0.000541904
-0.000689724
-0.000870449
-0.000784226
-0.00395784
-0.00931558
-0.0186587
-0.0172764
-0.00912493
-0.00048966
-0.000571693
-0.000685239
-0.000858348
-0.000812023
-0.00332897
-0.00783873
-0.011056
-0.0168474
-0.00926106
-0.000487524
-0.000571621
-0.000687709
-0.0008652
-0.000935605
-0.0030107
-0.00808591
-0.0101328
0.111899
0.103723
0.0324107
-0.0185038
-0.0215992
-0.04199
-0.0456151
0.0323421
-0.0109695
-0.0149091
0.164874
0.134246
0.0188752
-0.0337941
-0.012795
-0.000242966
0.0300596
0.0537477
-0.01039
0.0545312
0.0497804
0.00635775
-0.0512066
-0.0264215
0.0164054
0.0232218
0.0594812
0.0629905
0.0615436
0.0745719
0.0537303
-0.0574994
-0.0386865
0.0176729
0.0478817
0.0737831
0.117596
0.11397
0.0980644
0.0641619
0.0713617
-0.000791088
0.0415914
0.0743233
0.0959923
0.109771
0.111806
0.101971
0.0321253
0.0781304
0.0659201
-0.0119511
0.0229683
0.05287
0.0576737
0.0496051
0.00596103
-0.0168744
-0.00703865
0.0794645
0.0696173
-0.109837
-0.0888615
-0.0873803
-0.0733884
-0.059463
-0.0419332
-0.0311092
0.0329976
0.0158279
0.0952289
-0.0375463
-0.0250888
-0.0736497
-0.0624618
-0.0433626
-0.027024
-0.0260406
0.00154813
-0.0209954
0.121533
0.00267797
0.0457029
0.0576794
-0.00566552
-0.0150516
-0.028553
-0.0224386
0.00236528
-0.00925393
0.132807
0.0300451
0.0487662
0.0817188
0.0482107
-0.00731085
-0.0243781
-0.00903322
0.0179819
0.00981599
0.00664933
0.00711255
0.00757351
0.00724324
0.00705303
0.00774448
0.0113087
0.012708
0.0122293
0.0110239
0.00651678
0.00668852
0.00679552
0.00684566
0.00759419
0.011467
0.0151051
0.0147852
0.0129923
0.0151242
0.00629617
0.00637037
0.00670477
0.00714917
0.00948194
0.0148551
0.0173603
0.0166595
0.0180633
0.0187855
0.00669132
0.00682097
0.00727095
0.00823381
0.0112692
0.0165218
0.0195568
0.0213984
0.0217015
0.0211458
0.00743385
0.00762276
0.00807962
0.00924377
0.0124546
0.0182303
0.0214464
0.023607
0.0225425
0.020524
0.00840764
0.00866713
0.00948064
0.0111029
0.0138484
0.0168481
0.0220205
0.0213579
0.0209748
0.0217336
0.00977201
0.0101453
0.011018
0.0123555
0.0151082
0.0166236
0.0194391
0.0204139
0.0241164
0.0259403
0.0108476
0.011153
0.0130634
0.020778
0.0207009
0.0212984
0.0217118
0.0236968
0.0301716
0.0301358
0.0127307
0.0173175
0.026155
0.0291561
0.0312199
0.0300821
0.0315169
0.0315317
0.0285523
0.0265527
0.0163337
0.0236619
0.0319023
0.0320325
0.0350296
0.0364871
0.0364009
0.034182
0.0333107
0.0333694
4.33737e-05
4.44645e-05
4.60157e-05
6.51176e-05
9.5451e-05
0.000109343
0.000113252
0.00012421
0.000183394
0.000276746
5.04353e-05
4.94527e-05
7.87139e-05
0.000113215
0.000128638
0.000133998
0.000150274
0.000225755
0.000308785
0.000343541
6.65293e-05
8.69306e-05
0.000126006
0.000149187
0.000164774
0.000205034
0.000332297
0.000453458
0.000496854
0.000403947
0.000109727
0.000139276
0.000179288
0.00023206
0.000341489
0.000523656
0.000687971
0.000770092
0.000721807
0.000490281
0.000166086
0.000221255
0.000337812
0.000525552
0.000717138
0.000917322
0.00104783
0.00103083
0.000925827
0.000663994
0.000334523
0.000496298
0.00072601
0.000899549
0.00110589
0.00124867
0.00138887
0.00133019
0.00113944
0.000866457
0.000667674
0.000894752
0.00103886
0.00113431
0.00124105
0.00146636
0.00166009
0.00172445
0.00143889
0.00114809
0.00103408
0.00124499
0.00133512
0.00131145
0.00132579
0.00174366
0.00200499
0.00217645
0.00185221
0.00157067
0.00137683
0.00164705
0.00161532
0.00157457
0.00158022
0.00222196
0.00254703
0.00281507
0.00247409
0.00211521
0.00181089
0.00212902
0.00204391
0.0019519
0.00198527
0.00283338
0.00322514
0.00350958
0.00317104
0.00276975
3.3308e-08
4.2065e-08
4.71327e-08
5.91042e-08
1.11684e-07
3.15565e-07
8.36932e-07
1.4926e-06
1.87011e-06
1.78696e-06
4.739e-08
6.25246e-08
1.28454e-07
2.44344e-07
5.43821e-07
1.36889e-06
2.62108e-06
3.2403e-06
3.2119e-06
2.40152e-06
1.4789e-07
2.39373e-07
5.22067e-07
8.93652e-07
1.65272e-06
3.03864e-06
4.0341e-06
4.25644e-06
3.53136e-06
2.4818e-06
4.61211e-07
6.61312e-07
1.13359e-06
1.87414e-06
2.83216e-06
3.98755e-06
4.43572e-06
4.04882e-06
2.99231e-06
1.97335e-06
8.63824e-07
1.07482e-06
1.42368e-06
1.98509e-06
2.83155e-06
3.93616e-06
4.40859e-06
3.84404e-06
2.71965e-06
1.77633e-06
1.14803e-06
1.282e-06
1.45346e-06
1.77071e-06
2.49338e-06
3.63788e-06
4.47834e-06
4.09697e-06
2.70588e-06
1.81193e-06
1.36754e-06
1.47576e-06
1.57678e-06
1.83385e-06
2.32989e-06
3.47665e-06
4.92433e-06
4.87743e-06
3.42261e-06
2.43237e-06
1.63901e-06
1.81125e-06
1.90762e-06
2.11609e-06
2.43987e-06
3.23007e-06
5.1318e-06
5.58743e-06
4.31985e-06
3.15115e-06
2.17576e-06
2.44842e-06
2.56772e-06
2.66583e-06
2.86602e-06
3.36195e-06
4.98836e-06
6.21057e-06
5.58836e-06
4.30962e-06
3.72704e-06
3.60086e-06
3.66022e-06
3.66008e-06
3.77339e-06
4.04233e-06
5.03052e-06
6.62548e-06
6.73917e-06
5.68991e-06
-0.00061867
-0.000425037
-0.000790417
-0.00130164
-0.00153137
-0.0016561
-0.00174299
-0.0017823
-0.00173813
-0.00153516
-0.000687165
-0.000200963
2.27482e-05
-0.000174577
-0.00057886
-0.000972395
-0.00121419
-0.00123257
-0.00118726
-0.00111687
-0.00121722
-0.00057062
-7.31698e-06
0.000222997
0.00018064
3.60251e-05
-0.000156108
-0.000319523
-0.00042444
-0.000664596
-0.00164107
-0.00126778
-0.000473568
0.000132697
0.000278294
0.000264594
0.000187366
6.64683e-05
-0.000184098
-0.000679189
-0.00169153
-0.0013922
-0.000763264
-8.11513e-05
0.000155531
0.000188913
0.000129873
-1.69919e-07
-0.000343396
-0.000860078
-0.00167621
-0.00131706
-0.000851339
-0.000426562
-0.000170098
-5.84774e-05
-0.000121014
-0.000329086
-0.000757479
-0.00132984
-0.00166272
-0.00145102
-0.00117182
-0.000927941
-0.000757941
-0.00070812
-0.00082705
-0.00109737
-0.00147704
-0.00169876
-0.00179058
-0.00168961
-0.0015998
-0.00148966
-0.00143248
-0.00143693
-0.00154381
-0.00171001