/*--------------------------------*- C++ -*----------------------------------*\
  =========                 |
  \\      /  F ield         | OpenFOAM: The Open Source CFD Toolbox
   \\    /   O peration     | Website:  https://openfoam.org
    \\  /    A nd           | Version:  9
     \\/     M anipulation  |
\*---------------------------------------------------------------------------*/
FoamFile
{
    format      ascii;
    class       volScalarField;
    location    "80";
    object      N2.gas;
}
// * * * * * * * * * * * * * * * * * * * * * * * * * * * * * * * * * * * * * //

dimensions      [0 0 0 0 0 0 0];

internalField   nonuniform List<scalar> 
137980
(
0.00107958
0.00117188
0.00166019
0.00292394
0.00547268
0.00658109
0.00664737
0.00629489
0.0059811
0.00556562
0.00105737
0.00116582
0.00153621
0.00268004
0.00468314
0.00601933
0.0062383
0.00605656
0.0059024
0.00535565
0.000855085
0.00110538
0.00149558
0.00231647
0.00406057
0.00491881
0.0056766
0.00563836
0.00529985
0.00505656
0.000763181
0.00103115
0.00144897
0.00201055
0.0032693
0.0040611
0.00442112
0.00483329
0.00503419
0.00492542
0.000687475
0.000925187
0.00144971
0.00161668
0.00222263
0.00326147
0.0036985
0.00379222
0.00403467
0.00435858
0.000609732
0.000778232
0.00127471
0.00143373
0.00156936
0.00217099
0.00296731
0.00332213
0.00324076
0.00321057
0.000717573
0.000722526
0.00098158
0.00138972
0.00144421
0.00152617
0.00188268
0.00228604
0.00265359
0.00263696
0.000811085
0.000783004
0.000805376
0.00110777
0.00137195
0.00135304
0.00143629
0.00154426
0.00161117
0.00171259
0.000846363
0.000845057
0.000829126
0.00100242
0.00121622
0.00123319
0.00126411
0.00131699
0.00135374
0.00138916
0.000849399
0.000911759
0.00102935
0.00101931
0.00115058
0.00120466
0.00119464
0.00120391
0.00125991
0.00129675
0.00116244
0.00136066
0.002153
0.00353882
0.00556653
0.00653361
0.00652357
0.00610783
0.00574817
0.00607855
0.00100997
0.00132152
0.00211475
0.00327272
0.00472475
0.00588172
0.00615344
0.00601528
0.00588496
0.00601157
0.000960396
0.00136459
0.00198968
0.00290787
0.0041024
0.00486672
0.00563236
0.00578866
0.00606456
0.00605583
0.000914674
0.00127224
0.00173542
0.00236578
0.00342341
0.0041158
0.0049367
0.00550992
0.00554228
0.00580536
0.000886571
0.00122147
0.00157669
0.00179995
0.00252095
0.00346782
0.00384432
0.00498337
0.00540245
0.00563448
0.000776678
0.00100869
0.00141647
0.00159616
0.00182263
0.00257935
0.00323941
0.00391699
0.00496127
0.0052881
0.000790335
0.000845113
0.00113042
0.00154799
0.00150512
0.00177499
0.00227536
0.00290774
0.0040512
0.00462164
0.000825045
0.000833026
0.000918051
0.00129705
0.00141446
0.00146498
0.00167099
0.00199198
0.0021797
0.00302907
0.000844566
0.000837822
0.000876932
0.00104609
0.00135812
0.00135928
0.0013554
0.0014578
0.00154667
0.00180039
0.00084062
0.000866449
0.000955037
0.00102862
0.00118753
0.00127719
0.00129253
0.00130964
0.00137906
0.00137203
0.00124166
0.00158509
0.00215505
0.00351889
0.00538648
0.00613963
0.00603637
0.00542306
0.00482617
0.00570243
0.00116284
0.00154118
0.00213518
0.00328722
0.0043527
0.00531315
0.00584321
0.00542643
0.00510497
0.00563713
0.00109016
0.00147189
0.00205153
0.00295631
0.00394922
0.00478987
0.00553142
0.00563385
0.00534954
0.0056348
0.00109559
0.00140895
0.00179343
0.00233553
0.00341543
0.00422886
0.00520913
0.00565682
0.00547985
0.00562169
0.00106504
0.00132477
0.00156934
0.00184765
0.00266757
0.00368569
0.00494971
0.00537155
0.00578917
0.00562094
0.00092625
0.00119102
0.00150226
0.00161739
0.00196831
0.00292124
0.0042804
0.0051604
0.00539901
0.00554004
0.000831715
0.000933319
0.00121364
0.001599
0.00159973
0.00217042
0.00345608
0.00477084
0.00524425
0.00537049
0.000835305
0.000866057
0.00101504
0.00135087
0.00151682
0.00167888
0.00225301
0.00407268
0.00484654
0.00515215
0.000848964
0.000833698
0.000883498
0.00112649
0.00141759
0.0014477
0.00170887
0.00238459
0.00384823
0.00441556
0.00083724
0.000861863
0.000908006
0.0010118
0.00127459
0.00133272
0.00140915
0.00154797
0.00184151
0.00209732
0.00123418
0.00151641
0.00215452
0.00333185
0.00443328
0.00522701
0.00560658
0.00522159
0.0041312
0.00740393
0.00118971
0.00146691
0.00210045
0.00315499
0.00406311
0.00499596
0.00517867
0.00488898
0.00428696
0.00763399
0.00121819
0.00152057
0.00208718
0.00294056
0.00383603
0.00478505
0.00501589
0.00486056
0.00454666
0.0075985
0.0011641
0.00142106
0.0018413
0.00249785
0.00362002
0.00455109
0.00492479
0.00482751
0.00458655
0.00742711
0.00118119
0.00138358
0.00162262
0.00202343
0.00306143
0.00435165
0.00473914
0.00483122
0.00467548
0.00696742
0.000998338
0.00128916
0.00154844
0.0017462
0.00248655
0.0040181
0.00452807
0.00487256
0.00477271
0.0062028
0.000868358
0.0010119
0.00136081
0.00169613
0.00194509
0.00353237
0.00427784
0.00463056
0.00482575
0.00565637
0.000838686
0.000885178
0.001081
0.00149859
0.00171508
0.0026437
0.00401318
0.00444859
0.00464616
0.00533425
0.000776769
0.00082462
0.000904614
0.00121973
0.00160233
0.00189869
0.0033983
0.00410467
0.00442844
0.00492965
0.000797903
0.000845991
0.000898512
0.00104772
0.00140371
0.00164071
0.00266186
0.00323707
0.00344059
0.00334158
0.00127246
0.00162253
0.00238238
0.00342663
0.00409542
0.00438803
0.00436188
0.0037038
0.00448928
0.0102509
0.00128366
0.0016449
0.00241324
0.00347529
0.00403762
0.00421175
0.00415751
0.00404921
0.00612809
0.00974189
0.00133801
0.00172028
0.00242947
0.00350109
0.00397813
0.00416192
0.00418623
0.00455369
0.0077152
0.00901102
0.00125583
0.00160963
0.00222639
0.00332851
0.00393655
0.00421635
0.00431583
0.00516705
0.00799709
0.0095456
0.00128835
0.00154307
0.0019758
0.00303595
0.00387391
0.0041995
0.00435614
0.00536913
0.00788594
0.00957431
0.00115469
0.00147744
0.00173155
0.00248459
0.00368103
0.00416684
0.00448051
0.00529227
0.00749827
0.00926666
0.000977774
0.00124018
0.00160928
0.0020677
0.00320825
0.00405008
0.00439465
0.00506289
0.00658936
0.00841507
0.000861326
0.000999834
0.00130596
0.00142491
0.00275155
0.00372086
0.00426521
0.00474032
0.00545852
0.00660669
0.000820679
0.000870746
0.00105057
0.00133434
0.00164479
0.00295334
0.0040076
0.00445277
0.00486346
0.00571208
0.000762336
0.000853224
0.000940782
0.00117569
0.0012089
0.00238982
0.00346894
0.00387967
0.00397154
0.00427694
0.00158766
0.00176684
0.00213926
0.00233189
0.00268451
0.00253666
0.00252522
0.00299075
0.00819057
0.00848522
0.00197954
0.00222915
0.00281958
0.00272658
0.00254952
0.00256994
0.00318589
0.00618911
0.00767998
0.00726744
0.00210281
0.00241064
0.00271863
0.00277142
0.00278493
0.00315408
0.00500917
0.00707987
0.00753548
0.00763302
0.00211222
0.00243096
0.00284092
0.00316112
0.00341091
0.00430827
0.00638513
0.00749749
0.00798511
0.00833199
0.00213731
0.00248793
0.00291341
0.00328883
0.00391338
0.00509504
0.00696062
0.0080179
0.00860002
0.00980662
0.00204373
0.00251445
0.00307485
0.00361824
0.00443151
0.00587254
0.00772277
0.00863916
0.00965482
0.0104788
0.00176433
0.00245129
0.0030382
0.00395294
0.00507673
0.00635329
0.00777574
0.0087138
0.00980183
0.0102918
0.00137338
0.00213972
0.00294471
0.00391307
0.00509833
0.00636872
0.00766945
0.00865599
0.00962291
0.00922901
0.00110072
0.00155961
0.00259517
0.00365126
0.00497712
0.00622548
0.00733695
0.00830564
0.00906163
0.00857306
0.000859938
0.00122144
0.00185738
0.0032055
0.00458167
0.0057929
0.00661921
0.00738129
0.00763436
0.00780764
0.00122951
0.00144365
0.00137649
0.0017349
0.00190507
0.00264991
0.00510982
0.00575626
0.00489089
0.00461634
0.00161042
0.00162018
0.00164531
0.00185935
0.00266062
0.00448868
0.0046537
0.00430841
0.00330903
0.00285907
0.0017945
0.00181024
0.00193949
0.00248111
0.00407352
0.00441998
0.00413724
0.00375192
0.00317864
0.00309039
0.00197097
0.00206006
0.00258158
0.00353223
0.00468346
0.0042161
0.00391305
0.00360504
0.00348751
0.00536904
0.00218622
0.00246212
0.00299659
0.00404734
0.00433298
0.00400193
0.00383505
0.00401383
0.00753111
0.00928267
0.00244109
0.00266402
0.0036844
0.00440424
0.00450057
0.00392393
0.00471711
0.00769002
0.00939194
0.00992721
0.00256063
0.00317937
0.00368328
0.00446292
0.0041596
0.00450176
0.00670693
0.00878755
0.0093329
0.00833315
0.00264945
0.00330879
0.00386583
0.00431554
0.00475583
0.00573963
0.00780511
0.00879744
0.009088
0.00635855
0.00263029
0.00339897
0.00389708
0.00425288
0.00485485
0.00611192
0.00784882
0.00878752
0.00889789
0.00664162
0.00249548
0.00340954
0.00386752
0.00412229
0.00491303
0.00610672
0.00763139
0.00847585
0.00846215
0.00756525
0.00329583
0.00306732
0.00295595
0.00288387
0.00270241
0.00256951
0.00235764
0.00224851
0.00221845
0.0021744
0.00259009
0.00262402
0.00260063
0.00253093
0.00237915
0.00203993
0.00178515
0.00161943
0.00145576
0.00151015
0.00221269
0.00252825
0.00233915
0.00197779
0.00184129
0.00260668
0.00348705
0.00385808
0.00406487
0.00437803
0.00195354
0.00230115
0.00177928
0.00236718
0.00452095
0.00555314
0.00600232
0.00619464
0.00642181
0.00658719
0.00177463
0.00191553
0.00235339
0.00474156
0.00583958
0.00615438
0.00630502
0.00659198
0.00689453
0.00689241
0.00180142
0.00213081
0.00367672
0.00551555
0.00600341
0.00599421
0.00580817
0.00578452
0.00481398
0.0042702
0.00184642
0.00225554
0.00417715
0.00566221
0.00592546
0.0058883
0.00612039
0.00621597
0.00496984
0.00336175
0.00190872
0.00225179
0.00411612
0.00567616
0.00607265
0.00618039
0.00692053
0.00728097
0.00694648
0.00434676
0.00196512
0.00220501
0.00390267
0.00560146
0.0061275
0.00632064
0.00732934
0.00776557
0.0080993
0.00699015
0.00201135
0.00233926
0.00399882
0.00548283
0.00602371
0.00631683
0.00725675
0.00784944
0.00811618
0.00798302
0.00232203
0.00231054
0.00226413
0.00218183
0.00219125
0.00220795
0.0022418
0.00210025
0.00188436
0.00182362
0.00292402
0.00288827
0.00326236
0.00343856
0.00383438
0.003918
0.00341908
0.0033152
0.00306263
0.00258547
0.00383508
0.0039556
0.00418185
0.00443933
0.00430903
0.00438833
0.00452129
0.00418142
0.00395167
0.00353198
0.00440236
0.0045416
0.00483369
0.00486922
0.00525467
0.00513163
0.004223
0.00416485
0.00376705
0.00366738
0.00447889
0.00469848
0.00486144
0.00527506
0.0054447
0.00504623
0.00473963
0.00446312
0.00325311
0.00265305
0.00441682
0.00456321
0.00491987
0.00543415
0.00581899
0.00596003
0.00563834
0.00464619
0.004062
0.00292497
0.00429841
0.00449513
0.00453789
0.00533011
0.00590349
0.00650879
0.00674058
0.00694208
0.00640377
0.00466542
0.00394271
0.00439436
0.00441929
0.00498973
0.00572477
0.00651252
0.00685094
0.00740619
0.00746626
0.00687769
0.00329429
0.00410784
0.00421119
0.00481234
0.00527398
0.00639946
0.00677239
0.00740051
0.00778759
0.00760292
0.00345818
0.00411401
0.00407272
0.00463775
0.00496695
0.00603657
0.00619497
0.00574676
0.00627194
0.00662839
0.00261721
0.00253643
0.00248619
0.00240496
0.00235562
0.00224615
0.00222013
0.00214133
0.00210768
0.0021705
0.00308288
0.00275419
0.00264915
0.00254283
0.00250048
0.00231204
0.00220172
0.00211995
0.00196745
0.00184328
0.00463677
0.00437032
0.00407967
0.00380089
0.00337687
0.00292387
0.00264224
0.00267362
0.00234498
0.00217983
0.00535099
0.00549089
0.00501037
0.00497883
0.00418706
0.00319338
0.00303701
0.00300019
0.00261224
0.00226356
0.00558599
0.00591141
0.00572092
0.00540204
0.00523435
0.00487508
0.00437719
0.00397165
0.00360431
0.00305607
0.00539224
0.00574579
0.00607247
0.00594691
0.00589432
0.00598643
0.00605556
0.00563435
0.00543548
0.00451295
0.00382661
0.0052839
0.00575722
0.00581632
0.00596634
0.00626982
0.00650925
0.00667998
0.00660622
0.00613433
0.00227355
0.0041942
0.00543202
0.00561982
0.00587038
0.00620208
0.006391
0.00665342
0.00671847
0.00643876
0.00200983
0.00316114
0.00458978
0.0052175
0.00550511
0.00564891
0.00573912
0.0056362
0.00495312
0.005459
0.0021759
0.00343111
0.00452231
0.00500063
0.00483109
0.00498077
0.00501292
0.00439847
0.00399333
0.00433736
0.00306778
0.00347331
0.00390167
0.00463946
0.00498389
0.00511825
0.0049204
0.00462627
0.00436996
0.00426676
0.00265263
0.00250485
0.00239403
0.00224097
0.00216932
0.00213079
0.0019833
0.00200697
0.00186793
0.00185889
0.00337291
0.00276616
0.00251029
0.00229805
0.00221146
0.00211244
0.00209445
0.00213952
0.00217583
0.00231631
0.00403167
0.00344456
0.00316606
0.00288709
0.00263169
0.00270611
0.00297568
0.00321605
0.00338684
0.00379449
0.00472834
0.00452922
0.00402713
0.0036924
0.00359769
0.00361557
0.00386104
0.00408945
0.00422605
0.0044093
0.00517912
0.0051431
0.00509372
0.00473751
0.00457464
0.00455781
0.00476548
0.00494901
0.00488259
0.00535018
0.00444385
0.00524663
0.00550595
0.00558838
0.00562232
0.00557551
0.00572168
0.00601706
0.00615962
0.00586344
0.00222975
0.00449419
0.00535745
0.00566002
0.00579955
0.00593159
0.00606182
0.00617578
0.00619513
0.0059356
0.00201659
0.00280657
0.0047219
0.00548139
0.00574794
0.0058025
0.00582502
0.00573714
0.00525605
0.00533906
0.00202063
0.00250256
0.00454316
0.00526505
0.00516927
0.00513397
0.00498409
0.00433615
0.00413275
0.00438696
0.00403122
0.00434667
0.00371218
0.00314878
0.00253909
0.00355087
0.0047343
0.00698705
0.00843913
0.0131269
0.00487306
0.00491734
0.00484742
0.00468698
0.00521132
0.0055533
0.00640316
0.00798101
0.00969879
0.00566632
0.00513927
0.0052939
0.00534144
0.00541768
0.0058369
0.00609932
0.00737399
0.00690688
0.00314355
0.00162656
0.00511128
0.0053538
0.00593038
0.00616818
0.00629063
0.00633
0.00524387
0.00280348
0.00180538
0.00140225
0.00514894
0.00515659
0.00518298
0.00520139
0.00494283
0.0043356
0.00314422
0.00231191
0.00188407
0.00171041
0.00533901
0.00512606
0.00507614
0.00480525
0.00447996
0.00388551
0.00300493
0.0023852
0.00220417
0.00237925
0.00541282
0.00520095
0.00520664
0.0049678
0.00460517
0.00393253
0.00308082
0.00296172
0.00301552
0.00341047
0.00476279
0.00507759
0.00548302
0.00545183
0.00505052
0.00440342
0.0035424
0.00297721
0.00340908
0.0037563
0.00340205
0.00506213
0.0053188
0.00551606
0.0056548
0.00550857
0.00518123
0.00434276
0.00386859
0.00413564
0.00323414
0.00505495
0.00559457
0.00591825
0.00579064
0.00563716
0.00538464
0.00495233
0.00422193
0.00390077
0.00445979
0.00424527
0.00446859
0.00510387
0.00611967
0.00693645
0.0057276
0.00357482
0.00320521
0.00429248
0.00366291
0.00380338
0.00435193
0.00550299
0.00664914
0.00747431
0.00721677
0.00617019
0.00508207
0.00402007
0.00329084
0.00369254
0.00485033
0.00593122
0.00667458
0.00766573
0.00802464
0.00685601
0.00547573
0.00375226
0.00316305
0.00404655
0.00553254
0.00585577
0.00660908
0.00741615
0.00779897
0.00642964
0.00426165
0.00277999
0.00317699
0.00517135
0.00539428
0.00557464
0.00589093
0.00669569
0.0066884
0.00456543
0.00277031
0.00137413
0.00342454
0.00542798
0.00529441
0.00522021
0.00519808
0.00579463
0.00548733
0.00345344
0.0020043
0.00142922
0.00351094
0.00552067
0.00519725
0.00508825
0.00490546
0.00521736
0.00530845
0.00353359
0.00258306
0.00185078
0.0032049
0.00549082
0.00518933
0.00508895
0.00516183
0.00533007
0.00543348
0.00364666
0.00288148
0.00252272
0.00234312
0.00487978
0.00501999
0.00519722
0.00550174
0.00573558
0.00594863
0.00440428
0.00344084
0.0032298
0.00211854
0.00396105
0.00469454
0.00527734
0.00545252
0.00585722
0.00619694
0.00530504
0.00372823
0.00268389
0.00721235
0.00688383
0.00691131
0.00703041
0.00731905
0.00816628
0.00895689
0.00944275
0.0097546
0.00962043
0.00690648
0.00682202
0.00676013
0.00689557
0.00751513
0.0090475
0.0094983
0.00950497
0.00956807
0.00991148
0.00687535
0.00668684
0.00678572
0.00736331
0.00866791
0.00951171
0.00961263
0.00943054
0.00929094
0.00896488
0.00652176
0.00658889
0.00746518
0.00824978
0.00911444
0.009663
0.00952468
0.0091603
0.00849908
0.00775582
0.00653679
0.00712328
0.00785041
0.00846951
0.00919801
0.00959259
0.00924218
0.00802191
0.00667283
0.0059179
0.00620937
0.0073876
0.00784196
0.00844838
0.00870356
0.00894949
0.00825134
0.00610198
0.00469244
0.00440913
0.00604063
0.00751545
0.0076892
0.00783428
0.00786177
0.0076254
0.00661329
0.00486059
0.00331732
0.00295114
0.00597059
0.00728105
0.00714257
0.00733642
0.00707634
0.00625486
0.00575095
0.00413895
0.00224167
0.00156244
0.00568647
0.00692462
0.00694695
0.0069544
0.00633803
0.00588554
0.00549889
0.00333822
0.00193804
0.00167181
0.00580841
0.00676766
0.00668809
0.00647681
0.00594387
0.00561386
0.00506142
0.00338255
0.00251314
0.00216695
0.0101027
0.00962362
0.0100201
0.0107517
0.0114485
0.0130416
0.0169665
0.0177668
0.0156279
0.0120185
0.0101749
0.00938982
0.0098936
0.0106751
0.0117681
0.0145559
0.0187136
0.0211468
0.0207067
0.019319
0.00959495
0.00881578
0.0101078
0.0111087
0.0125215
0.0158343
0.0196001
0.02233
0.0226828
0.0226559
0.00919162
0.00855486
0.0102991
0.0113412
0.0131047
0.0163406
0.0200212
0.0226127
0.0234775
0.022924
0.0086252
0.00830034
0.0104156
0.0116054
0.0134279
0.0156146
0.0191451
0.0218794
0.0233256
0.0220066
0.00828466
0.00807208
0.0104486
0.0114373
0.0131648
0.0146504
0.0174235
0.020096
0.0219093
0.0200905
0.00807971
0.00776878
0.00992769
0.0109448
0.0123727
0.0135897
0.0155324
0.0174443
0.0184914
0.0158817
0.00802197
0.00724943
0.00908367
0.00971831
0.0106087
0.0114148
0.012491
0.0144311
0.0153193
0.0131684
0.0082016
0.00674399
0.00827322
0.00875643
0.00903447
0.00949272
0.00991114
0.0106348
0.0115762
0.0113617
0.00933006
0.00633864
0.00747396
0.00788575
0.00795864
0.00841046
0.00864863
0.00864399
0.00908838
0.00965429
0.0136956
0.0102782
0.0117207
0.0159139
0.0193328
0.0225544
0.0266075
0.0299909
0.0296957
0.0283997
0.0157608
0.0104402
0.0116644
0.0163592
0.0198991
0.023303
0.0267742
0.0308316
0.0319016
0.0325038
0.0163043
0.0104487
0.011765
0.016732
0.020095
0.0229511
0.0259983
0.0305632
0.0327459
0.034509
0.0164854
0.0104259
0.0119108
0.0168454
0.0198075
0.0220491
0.0249097
0.0285681
0.0322701
0.0350985
0.0165149
0.0103852
0.0118538
0.0164979
0.0193413
0.0207867
0.0230233
0.0264374
0.0312122
0.034662
0.01642
0.0103823
0.0116646
0.0160884
0.0185793
0.0198278
0.0212085
0.0241348
0.0296452
0.0333564
0.0164596
0.0104092
0.011394
0.0154301
0.0177373
0.0189647
0.0199546
0.0218742
0.0268376
0.0299349
0.0174818
0.0105713
0.0111444
0.0148958
0.0172197
0.0181147
0.01873
0.019932
0.0237045
0.0268513
0.0189543
0.010645
0.0110104
0.0146446
0.0169975
0.0178363
0.01825
0.01868
0.0201983
0.021262
0.021545
0.0108166
0.0109029
0.0141412
0.0167466
0.0176963
0.0181268
0.0183263
0.0184975
0.0185407
0.0200708
0.0196847
0.0226336
0.0233441
0.023638
0.0240823
0.0247739
0.0252849
0.0268351
0.0302228
0.0211657
0.0198158
0.0228653
0.0239539
0.0242508
0.0249096
0.0255534
0.0264613
0.0284327
0.0300689
0.0217761
0.0199239
0.0236409
0.0246885
0.0250402
0.0257007
0.0264344
0.0279281
0.0294069
0.0304845
0.0230458
0.0198574
0.0239308
0.0250048
0.0253632
0.0260361
0.0270416
0.0284904
0.02971
0.030457
0.024781
0.0193756
0.0240816
0.0253326
0.0255016
0.0261734
0.0272478
0.0286681
0.0297461
0.0299712
0.0285687
0.0185803
0.0240626
0.0255471
0.0255872
0.0261554
0.0272209
0.0285839
0.0292769
0.0294657
0.03602
0.0176181
0.0235084
0.025968
0.0257211
0.0260789
0.0269282
0.0281947
0.0289818
0.0291044
0.0492906
0.0172154
0.0215928
0.0263082
0.0259686
0.0259973
0.0265034
0.0276932
0.0285958
0.0289133
0.0646784
0.0172487
0.0186048
0.0264438
0.026282
0.0260102
0.02619
0.0267957
0.0278941
0.0284547
0.0713617
0.0176819
0.0170231
0.0264511
0.0267513
0.0262738
0.0260957
0.0260901
0.0263943
0.0268509
0.0652142
0.0331076
0.0301385
0.0296629
0.029796
0.0295494
0.0285783
0.0278257
0.0277908
0.0262405
0.0626455
0.0360215
0.0304317
0.0298744
0.0300071
0.0295068
0.0283294
0.0277713
0.027617
0.0254969
0.0698294
0.0367248
0.0303246
0.0299427
0.0300137
0.0293365
0.0282465
0.0278413
0.0275421
0.0251723
0.0723952
0.0372492
0.0302803
0.029942
0.0298757
0.0288988
0.0279522
0.0278027
0.0281738
0.027178
0.0729446
0.0372555
0.030085
0.0298901
0.0296888
0.0282901
0.0275177
0.0277353
0.0283424
0.028721
0.066955
0.0356631
0.0297292
0.0297944
0.02948
0.0277499
0.0273254
0.0277609
0.0283429
0.0287537
0.0615209
0.0348311
0.0294158
0.0295754
0.0292028
0.027507
0.0272502
0.0278092
0.0285286
0.0289248
0.0563861
0.0344037
0.0291188
0.0292036
0.0288982
0.027422
0.0272486
0.0278615
0.0284932
0.0286699
0.0549277
0.0343566
0.028875
0.0287594
0.0285971
0.0273989
0.0273001
0.0279555
0.028239
0.0279535
0.0554198
0.0349331
0.0287725
0.0282723
0.0281804
0.0273557
0.027143
0.0268006
0.0263012
0.0260977
0.0320195
0.0290274
0.0286612
0.0287217
0.029295
0.0296304
0.029951
0.0295785
0.0273736
0.0276441
0.0320628
0.0291028
0.0286375
0.0286741
0.0291025
0.0292539
0.0290611
0.0279315
0.0271025
0.0281761
0.0320619
0.0290741
0.0285411
0.028455
0.0284777
0.0283758
0.0279775
0.0277553
0.0283002
0.0349542
0.0337797
0.0293995
0.0286765
0.02855
0.0283811
0.0282198
0.0282467
0.0293139
0.0350745
0.0409458
0.0357014
0.0299986
0.0290172
0.0288483
0.0286574
0.0288314
0.0300227
0.0342747
0.0387447
0.0395887
0.0364274
0.0308646
0.0299806
0.0299222
0.0298593
0.0307654
0.0335114
0.0375014
0.0392719
0.0379233
0.037022
0.0319297
0.0309596
0.0311455
0.0323021
0.0335238
0.0360418
0.0384858
0.0388083
0.0373415
0.0362989
0.0337776
0.0326294
0.0323301
0.0337755
0.0351025
0.0372675
0.0386475
0.0381601
0.0364244
0.0353398
0.0346728
0.0347666
0.0342841
0.0344351
0.0359384
0.0374257
0.0386404
0.037951
0.0357285
0.0353842
0.0350009
0.0352671
0.0360891
0.0360357
0.0367127
0.0373487
0.0384324
0.0376551
0.0360617
0.0290064
0.020557
0.0199601
0.0202188
0.0210069
0.0231926
0.0278802
0.0334849
0.0610092
0.117167
0.0227717
0.0208115
0.020731
0.0207596
0.0216434
0.0242384
0.029235
0.0386269
0.0728863
0.128142
0.0199558
0.0211681
0.0214048
0.0216249
0.0226405
0.0255745
0.0324278
0.0506009
0.103488
0.129991
0.0200837
0.0213139
0.021797
0.0223141
0.0239713
0.0284723
0.0406067
0.0783335
0.110615
0.113982
0.0213047
0.0215167
0.0223427
0.0237095
0.0269426
0.0359045
0.0597275
0.0957097
0.106606
0.0800087
0.0220101
0.0217519
0.0229651
0.0257974
0.0316619
0.045813
0.0780043
0.0998657
0.100227
0.0579607
0.022449
0.0221237
0.0235786
0.027226
0.0367124
0.0568654
0.0870926
0.0998856
0.0893863
0.048548
0.0273683
0.0231446
0.0251387
0.0294859
0.039598
0.0588053
0.0869977
0.0994516
0.0888789
0.0464015
0.0343506
0.0238764
0.0266486
0.0316988
0.0405167
0.0572265
0.0841156
0.0975236
0.0895249
0.0474504
0.0306327
0.0248279
0.0294308
0.0341041
0.0407273
0.0507658
0.0719776
0.0907048
0.0921903
0.0478195
0.434947
0.427433
0.367277
0.324871
0.336996
0.326608
0.338394
0.467441
0.417386
0.408205
0.499734
0.464883
0.368869
0.332192
0.368066
0.388966
0.431229
0.51597
0.438198
0.436997
0.426312
0.373832
0.321179
0.362875
0.414844
0.427688
0.47162
0.534187
0.500449
0.451266
0.462809
0.334172
0.352585
0.420222
0.452586
0.486707
0.557273
0.567291
0.523376
0.439767
0.508553
0.430991
0.472036
0.504984
0.529131
0.556561
0.561024
0.540321
0.445466
0.442184
0.531279
0.472389
0.483244
0.497592
0.497463
0.487366
0.435188
0.385771
0.361882
0.42121
0.548359
0.377316
0.349508
0.331905
0.329735
0.32744
0.337529
0.331564
0.377545
0.353856
0.575638
0.455678
0.406036
0.334882
0.335552
0.337571
0.34011
0.321388
0.341777
0.315576
0.596989
0.495458
0.482061
0.458006
0.394903
0.369503
0.335745
0.322875
0.342382
0.326211
0.604569
0.525218
0.498926
0.490035
0.440955
0.379712
0.345673
0.344108
0.362593
0.346939
0.90305
0.903397
0.903732
0.901109
0.900201
0.905131
0.927274
0.941456
0.94579
0.946811
0.903996
0.903774
0.902868
0.901831
0.90456
0.920397
0.936563
0.941287
0.93863
0.948201
0.904701
0.903715
0.903184
0.903641
0.911283
0.929338
0.940206
0.942842
0.949136
0.949396
0.904848
0.90407
0.904058
0.906089
0.914328
0.928812
0.939339
0.946549
0.948045
0.945395
0.905123
0.904647
0.904887
0.90728
0.914388
0.926444
0.934966
0.940534
0.938942
0.93448
0.905584
0.905454
0.906617
0.909618
0.914806
0.920105
0.928902
0.928737
0.928008
0.928055
0.906716
0.907159
0.908434
0.910641
0.914564
0.916419
0.9205
0.92187
0.925466
0.926166
0.907746
0.908361
0.911153
0.920095
0.91902
0.918744
0.919494
0.921227
0.92604
0.923939
0.90919
0.914032
0.922465
0.924505
0.925484
0.923798
0.924709
0.92326
0.919708
0.917375
0.911542
0.917413
0.923506
0.923354
0.925489
0.925857
0.924531
0.921926
0.92091
0.921177
0.94555
0.944242
0.943674
0.942332
0.941732
0.941321
0.941894
0.945186
0.955828
0.969558
0.944182
0.943992
0.94347
0.943042
0.943054
0.944399
0.948672
0.959729
0.970214
0.973501
0.944415
0.944453
0.944721
0.945815
0.948202
0.954137
0.967004
0.977657
0.980889
0.975858
0.945592
0.946607
0.94903
0.953914
0.96321
0.976095
0.986427
0.990989
0.992038
0.981594
0.949513
0.953257
0.960826
0.971425
0.980853
0.989826
0.995342
0.997491
0.998045
0.990661
0.962205
0.970275
0.979244
0.984479
0.990497
0.994193
0.998006
0.999357
0.998614
0.991888
0.976267
0.981882
0.984712
0.986328
0.987965
0.99245
0.996737
0.999227
0.998187
0.992357
0.981902
0.98339
0.98384
0.982485
0.982079
0.990085
0.995085
0.998861
0.997012
0.993752
0.982582
0.98288
0.980496
0.979015
0.979623
0.989531
0.994715
0.998311
0.995776
0.994849
0.979837
0.982101
0.979048
0.976647
0.978089
0.989327
0.993283
0.997186
0.996148
0.997306
0.989372
0.995358
0.998038
0.999215
0.999587
0.999677
0.999547
0.999256
0.998384
0.994101
0.985683
0.992917
0.997569
0.999279
0.999805
0.999925
0.999956
0.999934
0.999532
0.996339
0.980269
0.986486
0.995143
0.998587
0.999688
0.999936
0.999993
0.999993
0.999884
0.998688
0.974934
0.978649
0.986269
0.994528
0.997878
0.999466
0.999977
0.999999
0.99999
0.999836
0.970733
0.972701
0.975981
0.981212
0.987868
0.995285
0.99978
0.999996
0.999998
0.999974
0.96822
0.969
0.970817
0.974118
0.980583
0.990304
0.998347
0.999963
0.999997
0.999995
0.967551
0.967912
0.969162
0.97186
0.976149
0.985026
0.995411
0.999628
0.999984
0.999997
0.967649
0.967824
0.968624
0.970549
0.973235
0.978832
0.990498
0.998047
0.999875
0.999992
0.968546
0.968125
0.96855
0.969689
0.97162
0.975128
0.984508
0.994792
0.999346
0.999955
0.97368
0.969382
0.969012
0.969744
0.971331
0.973372
0.979035
0.990175
0.9981
0.999821
0.000104732
8.81373e-05
0.000163155
0.000226727
0.000228361
0.000204333
0.00016631
0.000172735
0.000206281
0.000204929
0.000172972
0.000223961
0.000240328
0.00019551
0.000189042
0.000252188
0.00030988
0.000347203
0.000390462
0.000314204
0.00024336
0.000405171
0.000325521
0.000352375
0.000326292
0.000331924
0.000343644
0.000382986
0.000386658
0.000348397
0.000129005
0.00020048
0.000398385
0.000393898
0.000427478
0.000437327
0.000446309
0.000457935
0.000420209
0.000305469
9.96478e-05
0.000131093
0.00019099
0.000324154
0.000408785
0.000437055
0.000468119
0.000465131
0.000401184
0.000282699
0.000106373
0.000126245
0.000173413
0.00024742
0.000272653
0.000357886
0.000434688
0.00041678
0.000352033
0.000243815
0.00022131
0.000161774
0.000190819
0.000221777
0.000229197
0.000270021
0.000303007
0.000306901
0.000245927
0.000195544
0.000117289
0.000143454
0.000151628
0.000165559
0.000172622
0.00017677
0.000170816
0.000182704
0.000185388
0.000195485
0.00010319
0.000123432
0.000112286
0.000129869
0.000151375
0.000180619
0.000180443
0.000179024
0.000190079
0.000213991
8.4423e-05
0.000125813
0.000124555
0.000156166
0.000183142
0.000221455
0.000222396
0.000231027
0.000244117
0.000299241
1.68786e-05
4.00588e-05
9.66802e-05
0.000105635
0.000192199
0.000184733
0.000163652
0.000133065
0.000135932
0.000170723
4.7634e-05
0.000114628
0.000185546
0.000209726
0.000195456
0.000176062
0.000237229
0.000247655
0.000277821
0.000343337
8.60731e-05
0.000189348
0.00027879
0.000319935
0.000336306
0.000304072
0.000285353
0.000282748
0.000359185
0.000371916
5.50711e-05
8.13679e-05
0.000230987
0.000407081
0.000407597
0.000430871
0.000439099
0.000431688
0.000436996
0.000455599
4.24906e-05
2.31829e-05
3.51588e-05
0.000168943
0.000380934
0.000420857
0.000465769
0.00047969
0.000508471
0.00050958
1.6292e-05
0
2.52502e-05
0.000120219
0.000239529
0.000334477
0.000419265
0.000444293
0.000497624
0.000489119
3.23376e-05
6.98856e-05
0.000140103
0.000214048
0.000194931
0.000162583
0.000260399
0.000306471
0.00042767
0.000410914
8.32429e-05
0.00019314
0.000190295
0.000197095
0.000230801
0.000249417
0.000289789
0.000309298
0.00033555
0.000341354
6.5204e-05
0.000150439
0.000166279
0.000174695
0.000174956
0.000188824
0.000246761
0.000186584
0.000182421
0.000236875
5.14971e-05
8.09934e-05
0.000136692
0.000167633
0.000179256
0.000193147
0.000213163
0.000167754
0.00019783
0.000238835
4.33347e-07
3.46916e-05
3.24928e-05
7.03905e-05
0.000128878
0.000158758
0.00016186
0.000149616
0.000133832
0.000128986
1.00827e-05
6.79627e-05
0.000111583
0.000159043
0.000139684
0.000157706
0.000166504
0.000222837
0.000235526
0.000248568
2.9215e-05
0.000104466
0.000203892
0.000208678
0.000248658
0.000275072
0.000263209
0.000239554
0.000242048
0.000287393
5.64653e-06
3.10566e-05
9.12412e-05
0.000224737
0.000341165
0.000338566
0.000407196
0.00040198
0.000411484
0.000450056
0
0
0
5.56576e-05
0.000191055
0.00034236
0.000456084
0.000448371
0.000491152
0.000550621
0
0
0
4.05925e-05
0.000111485
0.000241479
0.000216178
0.000369977
0.000463076
0.000546292
0
6.39403e-06
7.94451e-05
0.000125655
0.000166919
0.000154149
0.0001873
0.000245
0.000355357
0.000500485
9.4133e-08
4.11213e-05
0.000119415
0.000200348
0.000246134
0.000261989
0.000301905
0.000349346
0.000363145
0.000441264
7.52081e-06
5.82997e-05
0.000118771
0.000170997
0.000227778
0.000241995
0.000259625
0.000350297
0.000380128
0.000383741
1.94784e-05
5.15611e-05
8.18975e-05
0.000127688
0.000154915
0.000186693
0.000211909
0.000197613
0.000256813
0.000283311
3.8921e-06
2.81626e-05
2.81182e-05
4.43755e-05
7.87334e-05
0.000114426
0.000142261
0.00015141
0.000149272
0.000132676
4.85981e-06
5.00013e-05
7.49918e-05
0.000102852
0.000105032
0.00010486
0.000132104
0.000144499
0.00021539
0.000235325
2.77371e-05
5.95137e-05
0.000105933
0.000139985
0.000180262
0.000188846
0.000193891
0.000220033
0.000227822
0.000251026
1.10106e-05
2.91466e-05
5.18706e-05
0.000123158
0.000222778
0.000200613
0.000213202
0.000307224
0.000349946
0.000447849
0
0
1.36805e-05
4.92026e-05
0.000102666
0.000141428
0.000187778
0.000288282
0.000376257
0.000528405
0
0
0
3.78361e-05
9.15148e-05
0.000106594
0
4.97146e-05
0.000301892
0.000508301
0
0
2.6472e-05
8.54502e-05
0.000143133
0.00015532
3.09069e-05
5.55827e-05
0.00024903
0.000463953
0
6.69913e-06
6.45546e-05
0.000143527
0.000189917
0.000303968
0.000389592
0.000368962
0.00036104
0.000446174
0
7.25623e-06
7.93492e-05
0.000128947
0.000151881
0.000210998
0.000276244
0.000389828
0.000420845
0.000474725
0
7.48127e-06