/*--------------------------------*- C++ -*----------------------------------*\
  =========                 |
  \\      /  F ield         | OpenFOAM: The Open Source CFD Toolbox
   \\    /   O peration     | Website:  https://openfoam.org
    \\  /    A nd           | Version:  9
     \\/     M anipulation  |
\*---------------------------------------------------------------------------*/
FoamFile
{
    format      ascii;
    class       volScalarField;
    location    "80";
    object      p;
}
// * * * * * * * * * * * * * * * * * * * * * * * * * * * * * * * * * * * * * //

dimensions      [1 -1 -2 0 0 0 0];

internalField   nonuniform List<scalar> 
137980
(
114660
114661
114662
114664
114668
114672
114679
114703
114859
114888
114673
114679
114686
114695
114707
114721
114738
114774
114873
115001
114686
114694
114705
114718
114734
114752
114774
114817
114905
114998
114694
114704
114718
114734
114752
114773
114800
114845
114910
114952
114696
114710
114725
114743
114763
114786
114815
114854
114899
114916
114697
114713
114729
114747
114767
114791
114818
114852
114882
114889
114706
114719
114731
114747
114765
114788
114813
114838
114856
114851
114726
114729
114735
114744
114758
114777
114798
114814
114822
114807
114742
114739
114738
114739
114746
114760
114776
114785
114791
114804
114723
114738
114737
114732
114730
114735
114744
114740
114729
114761
114328
114325
114317
114306
114287
114261
114231
114221
114366
114311
114341
114344
114345
114343
114336
114325
114313
114322
114403
114483
114356
114364
114370
114375
114377
114375
114374
114396
114474
114559
114368
114380
114391
114402
114410
114417
114428
114463
114532
114596
114375
114392
114407
114422
114436
114451
114473
114511
114568
114610
114381
114402
114420
114437
114454
114475
114502
114541
114587
114614
114395
114413
114429
114445
114464
114488
114518
114555
114590
114605
114417
114425
114435
114448
114465
114488
114517
114548
114569
114555
114429
114432
114437
114443
114454
114474
114500
114521
114526
114491
114406
114430
114433
114428
114428
114441
114466
114485
114497
114477
113958
113951
113942
113924
113893
113850
113813
113838
114060
113967
113969
113971
113968
113958
113940
113917
113904
113931
114029
114048
113987
113992
113993
113989
113979
113965
113961
113987
114069
114106
114002
114011
114017
114018
114013
114008
114010
114043
114111
114134
114011
114027
114039
114044
114046
114048
114059
114096
114153
114165
114021
114043
114059
114069
114075
114084
114106
114149
114203
114215
114037
114059
114077
114090
114100
114116
114148
114205
114269
114302
114058
114073
114089
114103
114117
114139
114184
114263
114350
114406
114068
114079
114092
114102
114116
114141
114197
114301
114423
114483
114049
114080
114083
114075
114080
114103
114166
114299
114482
114542
113565
113562
113563
113553
113523
113480
113463
113591
113969
113794
113578
113585
113589
113587
113574
113562
113576
113646
113771
113712
113599
113608
113615
113616
113611
113610
113631
113691
113749
113665
113615
113627
113636
113640
113638
113641
113666
113724
113742
113614
113624
113641
113653
113658
113660
113666
113694
113741
113738
113599
113633
113653
113667
113672
113675
113686
113715
113759
113756
113634
113645
113665
113678
113682
113685
113700
113737
113788
113801
113725
113660
113673
113684
113687
113689
113708
113758
113832
113880
113861
113670
113673
113677
113679
113681
113704
113772
113883
113983
114002
113671
113669
113652
113639
113641
113665
113747
113904
114075
114119
113144
113145
113156
113158
113128
113095
113155
113517
113901
113773
113164
113177
113187
113190
113185
113187
113237
113421
113605
113629
113193
113208
113221
113228
113234
113247
113294
113389
113405
113317
113212
113230
113246
113257
113266
113286
113322
113321
113186
112942
113217
113241
113258
113270
113282
113302
113318
113251
113063
112776
113219
113243
113258
113269
113283
113302
113305
113228
113051
112802
113218
113239
113250
113258
113273
113293
113295
113239
113102
112919
113213
113227
113236
113243
113257
113277
113288
113262
113181
113062
113204
113206
113213
113220
113234
113257
113284
113292
113262
113179
113199
113174
113172
113177
113193
113225
113274
113323
113351
113299
112604
112606
112630
112665
112681
112729
112978
113426
113653
113547
112629
112644
112662
112689
112719
112783
112966
113242
113395
113473
112678
112695
112712
112733
112762
112818
112923
112999
112974
112960
112730
112744
112758
112772
112788
112800
112800
112729
112588
112441
112764
112778
112789
112793
112789
112761
112677
112526
112367
112228
112777
112792
112801
112801
112779
112716
112593
112444
112305
112222
112774
112787
112796
112794
112763
112688
112567
112432
112308
112259
112760
112763
112773
112774
112748
112678
112567
112438
112313
112249
112732
112720
112732
112745
112730
112671
112569
112446
112317
112221
112720
112654
112673
112711
112717
112672
112578
112459
112343
112233
112204
112155
112122
112128
112187
112344
112526
112564
112416
112180
112191
112171
112172
112189
112232
112307
112373
112359
112260
112334
112164
112178
112190
112197
112204
112204
112167
112084
112017
112032
112185
112193
112190
112168
112133
112067
111970
111875
111827
111814
112231
112218
112188
112138
112065
111958
111850
111768
111737
111736
112274
112241
112191
112123
112024
111904
111796
111722
111692
111705
112301
112256
112198
112122
112010
111888
111777
111697
111652
111663
112310
112260
112204
112130
112023
111901
111782
111692
111628
111612
112302
112251
112209
112149
112058
111938
111811
111715
111641
111585
112311
112235
112211
112184
112118
112001
111864
111775
111703
111576
111785
111690
111636
111605
111576
111537
111496
111462
111392
111217
111801
111703
111614
111533
111464
111410
111377
111353
111340
111423
111796
111682
111576
111478
111393
111329
111287
111263
111286
111372
111768
111654
111541
111437
111347
111279
111234
111215
111241
111309
111742
111630
111517
111413
111325
111258
111213
111194
111212
111272
111727
111618
111511
111410
111324
111257
111211
111189
111194
111247
111719
111617
111520
111427
111342
111273
111223
111191
111177
111202
111711
111626
111545
111464
111383
111309
111251
111203
111168
111146
111704
111641
111584
111525
111450
111368
111298
111237
111173
111098
111707
111660
111636
111618
111559
111460
111377
111300
111190
111027
111011
111064
111116
111132
111114
111085
111069
111056
111025
110918
111116
111085
111056
111029
111005
110991
110989
110995
111019
111089
111139
111081
111033
110993
110963
110944
110936
110939
110972
111057
111151
111076
111020
110976
110944
110922
110911
110913
110940
111000
111166
111080
111017
110971
110938
110915
110902
110901
110916
110962
111189
111093
111026
110978
110943
110918
110900
110892
110896
110927
111211
111110
111043
110994
110958
110929
110905
110886
110873
110876
111206
111123
111064
111021
110985
110950
110919
110888
110857
110825
111174
111131
111090
111059
111029
110989
110948
110904
110855
110788
111138
111135
111120
111117
111099
111045
110992
110925
110849
110750
110390
110451
110518
110567
110594
110610
110621
110636
110640
110567
110520
110528
110540
110548
110555
110563
110576
110596
110633
110752
110568
110555
110549
110539
110533
110533
110538
110552
110594
110672
110611
110568
110551
110535
110524
110520
110520
110530
110555
110589
110649
110584
110555
110536
110522
110514
110511
110514
110525
110542
110677
110602
110563
110541
110525
110513
110506
110503
110504
110516
110702
110617
110574
110549
110532
110517
110504
110494
110484
110479
110677
110617
110581
110560
110544
110528
110511
110494
110471
110443
110614
110601
110583
110573
110566
110551
110530
110504
110469
110421
110536
110566
110580
110599
110610
110590
110558
110519
110463
110405
109933
109892
109865
109858
109881
109936
110012
110094
110142
110180
110058
110024
109998
109986
109994
110018
110057
110101
110168
110370
110137
110099
110067
110044
110033
110030
110035
110044
110089
110202
110165
110115
110083
110053
110031
110014
110003
110002
110025
110063
110143
110099
110071
110044
110020
110001
109985
109977
109977
109986
110115
110081
110056
110034
110013
109993
109974
109957
109942
109945
110132
110085
110054
110030
110010
109989
109967
109943
109916
109902
110123
110090
110056
110030
110011
109990
109966
109938
109905
109872
110106
110083
110053
110035
110022
110001
109976
109944
109911
109879
110074
110055
110038
110045
110048
110026
109997
109954
109909
109877
108911
108860
108760
108685
108709
108830
109077
109438
109811
110062
108939
108996
108958
108927
108952
109047
109234
109493
109765
110013
109211
109214
109179
109149
109153
109204
109314
109454
109588
109749
109425
109391
109355
109325
109311
109312
109331
109343
109349
109377
109505
109489
109469
109445
109410
109362
109302
109238
109182
109144
109526
109525
109514
109492
109447
109375
109282
109190
109105
109033
109537
109527
109515
109497
109452
109374
109271
109166
109063
108960
109550
109514
109495
109480
109442
109372
109273
109161
109053
108943
109557
109483
109458
109449
109422
109366
109276
109164
109092
109040
109515
109429
109406
109424
109412
109368
109277
109148
109147
109176
108423
108335
108229
108158
108151
108187
108222
108235
108240
108261
108443
108411
108320
108243
108213
108215
108229
108242
108257
108287
108637
108494
108384
108302
108259
108244
108248
108262
108284
108327
108719
108526
108411
108337
108296
108279
108278
108290
108315
108365
108687
108518
108420
108360
108327
108313
108311
108321
108341
108381
108645
108504
108423
108377
108352
108340
108338
108343
108349
108355
108604
108489
108424
108389
108370
108359
108355
108352
108339
108294
108556
108478
108427
108401
108388
108378
108371
108363
108345
108283
108501
108477
108446
108422
108409
108401
108395
108393
108395
108390
108371
108509
108494
108454
108434
108426
108426
108435
108470
108538
108106
107968
107744
107571
107492
107482
107492
107482
107469
107478
108099
107948
107753
107599
107512
107479
107469
107459
107453
107457
108136
107881
107701
107572
107495
107457
107442
107437
107439
107449
108036
107776
107622
107522
107462
107433
107422
107424
107435
107460
107897
107680
107555
107479
107436
107416
107412
107421
107439
107478
107769
107603
107507
107449
107420
107408
107411
107423
107444
107479
107662
107552
107475
107431
107415
107411
107418
107430
107447
107457
107583
107525
107463
107431
107423
107426
107436
107449
107465
107466
107509
107522
107483
107456
107449
107457
107470
107488
107513
107534
107372
107578
107546
107496
107483
107499
107519
107543
107579
107623
106613
106718
106736
106738
106730
106706
106689
106690
106676
106632
106689
106702
106692
106679
106667
106653
106643
106639
106634
106614
106759
106681
106654
106638
106627
106617
106610
106608
106608
106605
106789
106663
106625
106608
106598
106591
106587
106588
106593
106606
106782
106652
106606
106588
106579
106575
106573
106575
106584
106606
106760
106649
106599
106579
106571
106568
106565
106566
106574
106596
106744
106657
106603
106580
106573
106569
106564
106560
106562
106576
106730
106670
106616
106595
106587
106581
106570
106557
106548
106542
106696
106699
106654
106630
106615
106606
106588
106561
106537
106511
106585
106775
106727
106677
106655
106650
106628
106582
106535
106516
105593
105714
105742
105739
105721
105680
105663
105666
105631
105584
105637
105699
105706
105692
105672
105645
105624
105616
105601
105570
105676
105683
105678
105663
105644
105621
105601
105589
105575
105556
105708
105679
105660
105644
105626
105605
105585
105571
105561
105555
105732
105685
105657
105637
105618
105596
105575
105559
105551
105555
105753
105702
105665
105640
105618
105592
105567
105549
105539
105547
105784
105734
105684
105651
105624
105595
105563
105537
105519
105513
105826
105775
105717
105678
105643
105606
105564
105527
105495
105459
105856
105831
105785
105732
105681
105630
105577
105530
105490
105445
105781
105963
105890
105804
105743
105683
105614
105555
105527
105492
104660
104807
104839
104805
104716
104571
104356
103902
103354
103609
104651
104733
104741
104697
104607
104472
104288
104005
103651
103551
104684
104709
104689
104630
104537
104411
104242
104017
103753
103538
104729
104721
104680
104611
104515
104390
104231
104032
103799
103558
104776
104762
104713
104637
104536
104410
104260
104084
103889
103678
104837
104840
104792
104711
104607
104477
104323
104158
103991
103819
104925
104954
104914
104832
104725
104588
104426
104254
104094
103968
105029
105090
105069
104990
104883
104747
104580
104396
104226
104108
105115
105224
105234
105157
105046
104921
104772
104604
104421
104337
105130
105387
105390
105264
105138
105042
104936
104799
104600
104145
103521
103426
103491
103543
103525
103446
103335
103273
103322
103339
103293
103347
103427
103469
103458
103410
103350
103314
103320
103317
103202
103324
103405
103438
103428
103393
103354
103332
103337
103352
103239
103356
103418
103434
103417
103385
103351
103331
103333
103345
103346
103414
103449
103446
103419
103384
103350
103329
103324
103321
103442
103471
103486
103467
103430
103389
103352
103330
103321
103311
103507
103522
103527
103498
103451
103401
103357
103331
103317
103295
103535
103560
103571
103539
103480
103421
103369
103337
103314
103270
103506
103589
103649
103609
103527
103449
103389
103361
103342
103335
103387
103673
103823
103747
103599
103474
103391
103385
103398
103346
102334
102234
102209
102219
102184
102168
102264
102460
102602
102241
102372
102300
102273
102257
102233
102228
102285
102402
102524
102642
102395
102369
102348
102326
102300
102293
102335
102435
102600
102812
102499
102462
102435
102408
102383
102376
102404
102478
102588
102718
102588
102541
102511
102486
102462
102443
102429
102426
102424
102371
102622
102584
102563
102548
102526
102485
102415
102334
102245
102097
102617
102598
102590
102584
102555
102491
102383
102259
102149
102041
102602
102597
102591
102584
102559
102485
102357
102207
102102
102085
102611
102600
102584
102570
102546
102475
102329
102127
102012
102068
102677
102622
102579
102552
102533
102467
102278
101979
101799
101932
100872
100847
100905
100970
101013
101084
101201
101275
101287
101317
101011
100934
100943
100977
101008
101055
101120
101171
101238
101430
100991
100975
100985
101003
101016
101037
101069
101102
101164
101289
101040
101031
101033
101036
101035
101033
101027
101012
100993
100965
101125
101091
101078
101073
101061
101034
100977
100885
100765
100581
101161
101129
101113
101108
101088
101034
100928
100763
100545
100253
101185
101153
101137
101136
101112
101038
100894
100662
100369
100044
101208
101165
101148
101154
101133
101052
100884
100596
100231
99944.7
101165
101133
101143
101170
101160
101085
100903
100530
100019
99829
101057
101046
101117
101196
101206
101139
100937
100400
99630.4
99631.8
99824.1
99860.9
99846.2
99880.6
99970.5
100035
100054
99974.1
99980
100147
99894.7
99921.4
99941.2
99941.8
99983.7
100030
100040
99985.8
100002
99998
99857.3
99939
99971.5
99992
100015
100044
100043
100009
99997
99990.2
99884.8
99990.2
100026
100037
100049
100060
100050
100022
99999.9
99994.8
99836.2
100081
100091
100084
100080
100073
100060
100039
100015
100003
99721.2
100246
100151
100118
100099
100084
100071
100058
100048
100050
99590.2
100280
100176
100128
100102
100087
100077
100070
100069
100093
99646.5
100253
100162
100116
100092
100084
100082
100074
100056
100056
99723.9
100110
100113
100079
100069
100077
100079
100069
100024
99943.9
99437.1
99978.5
100100
100037
100032
100075
100087
100075
100026
99890.7
99984.4
99967.7
99951
99924.2
99886
99839
99788.7
99744.4
99719.6
99748.1
99982.4
99963.2
99938.7
99906.2
99865.3
99817.8
99766.5
99719
99689.5
99693.9
99968.7
99954.6
99930.3
99899
99861.8
99818.9
99773.4
99731.1
99707.2
99712
99951.6
99947.8
99931.3
99906.9
99875
99837.2
99797.8
99762.9
99742.2
99740.7
99949.2
99951.2
99944.2
99926.1
99898
99864.4
99830.7
99801.9
99782.7
99770.2
99966.5
99965.7
99964.3
99951.4
99925.8
99893.7
99865.6
99843.8
99821.7
99792.8
99983.6
99979.1
99985.9
99980.2
99949.8
99916.7
99900
99891.7
99866.9
99817.4
99986.5
99976.6
99998.4
99993.1
99948.2
99926.9
99927.7
99929.5
99910.4
99870.9
99969.5
99923.3
99954.2
99955.4
99918.8
99916
99938.7
99941
99917.7
99925.3
99920.9
99795.4
99768.5
99901.7
99930.1
99915.4
99938.2
99934
99877
99849.1
99999.6
99999.5
99999.9
100000
100001
100001
100002
100002
100003
100002
100001
100001
100001
100002
100002
100003
100003
100003
100003
100002
100002
100002
100002
100003
100003
100003
100003
100004
100003
100003
100002
100002
100002
100003
100003
100004
100004
100003
100003
100003
100002
100001
100002
100003
100004
100004
100004
100003
100003
100002
100002
100001
100002
100004
100005
100005
100003
100003
100003
100002
100004
100002
100001
100003
100005
100005
100003
100002
100002
100002
100006
100002
99999.8
100001
100003
100003
100001
100001
100001
100003
100008
100001
99995.8
99994.6
99997.2
99999
99998.4
99997.8
99997.4
100001
100001
99997.9
99990.2
99986.8
99993.6
99998.2
99995.5
99992.3
99989.8
99991.6
100002
100002
100002
100002
100002
100003
100003
100003
100003
100003
100002
100002
100002
100002
100002
100003
100003
100003
100003
100003
100002
100002
100002
100002
100002
100002
100003
100003
100003
100003
100002
100002
100002
100002
100002
100002
100003
100003
100003
100003
100002
100002
100002
100002
100002
100002
100003
100003
100003
100003
100002
100002
100002
100002
100002
100002
100003
100003
100003
100003
100003
100002
100002
100002
100002
100003
100003
100003
100003
100003
100003
100003
100003
100003
100003
100003
100003
100003
100003
100003
100003
100003
100003
100003
100003
100003
100003
100003
100003
100003
100003
100003
100003
100003
100003
100003
100003
100003
100003
100003
158487
158482
158478
158473
158469
158465
158460
158456
158448
158446
158471
158467
158465
158461
158459
158456
158453
158449
158443
158439
158457
158456
158454
158453
158452
158450
158448
158446
158441
158436
158444
158444
158446
158446
158446
158446
158446
158444
158440
158433
158435
158436
158438
158439
158441
158443
158443
158442
158438
158431
158430
158430
158432
158434
158437
158439
158440
158439
158435
158427
158427
158426
158427
158430
158433
158436
158436
158434
158430
158422
158425
158422
158423
158426
158428
158430
158430
158428
158424
158417
158423
158419
158419
158421
158423
158424
158424
158422
158418
158413
158428
158417
158413
158414
158416
158417
158417
158416
158414
158412
158138
158136
158134
158131
158127
158122
158117
158111
158103
158097
158129
158126
158125
158122
158118
158115
158111
158107
158101
158094
158120
158118
158117
158116
158115
158112
158109
158106
158102
158097
158111
158110
158111
158112
158111
158110
158109
158107
158105
158101
158105
158105
158106
158107
158108
158108
158108
158108
158107
158104
158103
158102
158102
158103
158105
158106
158107
158107
158107
158104
158104
158101
158100
158101
158102
158104
158105
158106
158105
158101
158105
158100
158099
158099
158100
158102
158103
158103
158101
158098
158106
158099
158096
158097
158098
158099
158100
158100
158099
158096
158108
158097
158093
158093
158094
158096
158097
158097
158098
158097
157780
157781
157781
157780
157777
157773
157768
157763
157758
157754
157778
157776
157776
157775
157772
157769
157765
157762
157758
157753
157774
157773
157773
157772
157771
157769
157766
157763
157760
157756
157770
157770
157770
157771
157771
157770
157769
157768
157766
157765
157767
157768
157769
157770
157771
157772
157772
157771
157772
157772
157767
157768
157769
157770
157771
157772
157773
157774
157775
157776
157771
157770
157769
157770
157771
157773
157774
157775
157776
157777
157775
157772
157770
157771
157772
157773
157774
157775
157776
157775
157779
157773
157771
157771
157772
157773
157774
157775
157775
157773
157780
157773
157770
157770
157771
157772
157774
157775
157776
157775
157416
157422
157427
157428
157426
157422
157416
157409
157404
157404
157423
157422
157424
157424
157423
157420
157416
157413
157410
157407
157423
157423
157424
157425
157424
157423
157420
157418
157415
157413
157422
157424
157425
157426
157427
157426
157426
157425
157424
157424
157423
157425
157427
157428
157429
157430
157431
157431
157433
157434
157425
157428
157429
157431
157433
157434
157435
157437
157439
157441
157430
157431
157432
157434
157435
157437
157438
157440
157442
157445
157435
157434
157435
157436
157438
157440
157441
157443
157444
157445
157440
157437
157437
157439
157440
157442
157443
157444
157445
157444
157441
157438
157439
157441
157442
157444
157445
157447
157448
157446
157057
157069
157077
157080
157078
157074
157066
157058
157053
157055
157076
157074
157076
157077
157076
157073
157069
157065
157062
157061
157078
157076
157077
157078
157078
157077
157075
157073
157071
157070
157077
157078
157080
157081
157082
157082
157082
157081
157082
157083
157078
157081
157083
157085
157087
157088
157089
157089
157091
157094
157081
157085
157088
157090
157092
157093
157095
157096
157099
157103
157087
157090
157092
157094
157096
157098
157099
157101
157104
157107
157094
157095
157096
157099
157101
157102
157104
157105
157107
157108
157101
157099
157100
157103
157104
157106
157107
157108
157109
157109
157101
157101
157104
157107
157109
157110
157110
157112
157113
157112
156709
156727
156733
156735
156734
156729
156721
156712
156707
156712
156739
156735
156734
156734
156732
156729
156725
156722
156720
156721
156743
156737
156737
156736
156736
156734
156732
156731
156730
156731
156739
156738
156739
156740
156740
156740
156740
156740
156741
156743
156738
156740
156742
156744
156746
156747
156748
156749
156751
156754
156742
156744
156747
156749
156751
156753
156755
156756
156759
156763
156747
156749
156752
156755
156757
156758
156760
156762
156764
156768
156754
156755
156757
156760
156762
156763
156765
156766
156768
156770
156762
156760
156762
156765
156767
156768
156769
156770
156771
156771
156762
156762
156767
156770
156773
156773
156774
156775
156776
156775
156362
156384
156390
156392
156390
156385
156378
156372
156370
156377
156398
156395
156394
156393
156391
156389
156386
156383
156383
156386
156409
156401
156398
156397
156396
156395
156393
156392
156393
156395
156404
156401
156401
156401
156401
156401
156401
156402
156403
156406
156402
156403
156404
156406
156407
156408
156409
156410
156413
156417
156405
156407
156409
156411
156413
156415
156416
156418
156421
156425
156410
156412
156414
156416
156419
156420
156422
156423
156426
156430
156418
156418
156420
156422
156424
156426
156427
156428
156430
156432
156425
156423
156425
156428
156430
156431
156432
156433
156434
156434
156426
156426
156430
156434
156436
156436
156437
156437
156439
156439
156013
156036
156045
156047
156046
156042
156038
156036
156037
156048
156047
156048
156050
156050
156050
156048
156047
156047
156050
156055
156064
156058
156057
156056
156056
156056
156056
156057
156059
156063
156065
156062
156062
156062
156063
156063
156064
156066
156068
156072
156064
156064
156066
156068
156069
156070
156072
156074
156077
156082
156067
156069
156071
156074
156076
156077
156079
156081
156085
156089
156073
156075
156077
156079
156081
156083
156085
156087
156090
156094
156082
156081
156084
156085
156087
156089
156090
156092
156094
156096
156090
156088
156090
156092
156093
156094
156095
156096
156098
156099
156091
156091
156095
156098
156100
156100
156100
156101
156103
156104
155672
155693
155702
155705
155705
155703
155702
155703
155709
155722
155698
155703
155707
155709
155710
155711
155712
155714
155719
155725
155716
155714
155715
155717
155718
155719
155721
155724
155728
155733
155722
155721
155722
155724
155725
155727
155729
155732
155736
155741
155724
155726
155728
155731
155732
155735
155737
155740
155744
155749
155729
155732
155734
155737
155739
155741
155744
155747
155751
155756
155737
155739
155741
155744
155746
155748
155750
155753
155756
155760
155746
155747
155748
155750
155752
155753
155755
155757
155760
155763
155755
155754
155755
155757
155758
155759
155760
155762
155764
155765
155758
155757
155761
155763
155765
155765
155765
155767
155769
155771
155339
155357
155366
155369
155369
155369
155370
155375
155384
155398
155360
155366
155370
155373
155375
155377
155380
155385
155391
155398
155375
155376
155379
155381
155383
155386
155389
155393
155399
155404
155384
155384
155386
155389
155391
155394
155397
155401
155406
155412
155388
155390
155393
155396
155399
155402
155405
155409
155413
155419
155394
155397
155400
155403
155406
155408
155411
155415
155419
155425
155403
155405
155407
155410
155412
155415
155417
155421
155424
155429
155413
155413
155415
155417
155419
155421
155423
155425
155428
155432
155422
155421
155422
155424
155425
155426
155428
155430
155432
155435
155425
155425
155428
155430
155431
155432
155433
155435
155438
155441
155012
155027
155035
155038
155039
155040
155042
155049
155059
155074
155029
155035
155040
155043
155045
155048
155052
155058
155065
155071
155043
155044
155047
155050
155053
155056
155060
155065
155071
155076
155051
155052
155055
155058
155061
155064
155068
155073
155079
155084
155056
155059
155062
155065
155069
155072
155075
155080
155085
155091
155063
155066
155069
155072
155075
155079
155082
155086
155091
155096
155072
155074
155077
155079
155082
155085
155088
155091
155096
155100
155082
155083
155084
155087
155089
155091
155093
155096
155100
155103
155091
155090
155091
155093
155095
155096
155098
155101
155104
155107
155094
155095
155097
155100
155101
155102
155103
155105
155109
155113
154687
154701
154709
154712
154713
154713
154717
154724
154735
154750
154703
154708
154713
154716
154719
154722
154726
154732
154739
154744
154715
154717
154720
154723
154726
154729
154734
154739
154745
154748
154723
154724
154728
154731
154734
154737
154742
154747
154752
154756
154728
154731
154735
154738
154741
154744
154748
154753
154758
154763
154735
154738
154742
154745
154748
154751
154755
154759
154764
154769
154744
154746
154749
154752
154754
154757
154760
154764
154768
154773
154754
154755
154756
154759
154761
154763
154766
154769
154773
154777
154762
154762
154763
154765
154767
154769
154771
154774
154777
154780
154765
154766
154769
154771
154772
154773
154775
154778
154782
154787
154365
154377
154384
154387
154388
154388
154392
154399
154411
154424
154380
154384
154388
154391
154394
154396
154401
154407
154414
154417
154390
154392
154395
154398
154401
154404
154408
154413
154419
154421
154397
154399
154402
154405
154408
154411
154416
154420
154425
154428
154403
154406
154409
154412
154415
154418
154422
154427
154432
154436
154410
154413
154416
154419
154422
154425
154428
154433
154437
154442
154419
154421
154423
154425
154428
154431
154434
154438
154442
154447
154428
154428
154430
154432
154434
154437
154439
154443
154447
154451
154434
154434
154436
154438
154440
154442
154444
154447
154451
154455
154437
154439
154442
154444
154445
154446
154448
154451
154455
154461
154043
154054
154061
154063
154063
154064
154067
154073
154084
154096
154057
154061
154064
154067
154069
154071
154075
154080
154086
154089
154066
154068
154071
154073
154076
154078
154082
154087
154091
154092
154073
154075
154077
154080
154083
154086
154089
154094
154098
154100
154079
154081
154084
154087
154090
154093
154096
154101
154105
154108
154086
154088
154090
154093
154096
154099
154102
154106
154110
154115
154093
154095
154097
154099
154102
154105
154108
154112
154116
154120
154101
154102
154103
154105
154108
154110
154113
154117
154120
154125
154106
154107
154109
154111
154113
154115
154118
154121
154125
154129
154108
154111
154114
154116
154117
154119
154121
154125
154129
154134
153721
153731
153737
153739
153739
153738
153741
153746
153755
153766
153734
153737
153740
153742
153744
153746
153748
153753
153758
153760
153742
153744
153746
153748
153750
153752
153756
153760
153763
153763
153748
153750
153752
153755
153757
153760
153763
153766
153770
153770
153754
153756
153759
153761
153764
153766
153770
153773
153777
153779
153761
153763
153765
153767
153769
153772
153775
153779
153783
153786
153767
153769
153771
153773
153775
153778
153781
153785
153788
153793
153773
153774
153776
153778
153780
153783
153786
153790
153794
153798
153778
153779
153781
153783
153785
153788
153791
153794
153798
153803
153780
153783
153786
153787
153789
153791
153794
153798
153802
153807
153399
153408
153413
153414
153414
153413
153414
153419
153426
153435
153410
153413
153416
153418
153418
153419
153421
153425
153429
153429
153418
153419
153421
153423
153424
153426
153428
153431
153434
153433
153424
153425
153427
153429
153431
153433
153435
153438
153441
153440
153429
153431
153433
153435
153437
153439
153442
153445
153448
153449
153435
153436
153438
153440
153442
153445
153448
153451
153454
153457
153441
153442
153443
153445
153448
153450
153453
153457
153460
153465
153445
153446
153448
153450
153452
153455
153458
153462
153466
153471
153448
153450
153452
153454
153457
153460
153463
153466
153471
153476
153450
153454
153456
153458
153461
153463
153466
153470
153474
153479
153077
153085
153089
153090
153089
153087
153088
153091
153097
153103
153087
153090
153092
153093
153093
153093
153094
153097
153100
153099
153093
153095
153096
153097
153098
153099
153101
153103
153105
153103
153099
153100
153101
153103
153104
153105
153107
153110
153111
153111
153104
153105
153106
153108
153109
153111
153114
153116
153118
153120
153109
153110
153111
153113
153114
153117
153119
153122
153125
153128
153113
153114
153115
153117
153119
153122
153125
153128
153132
153136
153116
153117
153119
153121
153124
153127
153130
153133
153138
153143
153118
153121
153123
153125
153128
153131
153134
153138
153142
153148
153120
153124
153126
153129
153131
153134
153138
153141
153145
153150
152755
152762
152765
152766
152764
152762
152762
152764
152768
152774
152763
152765
152767
152768
152767
152767
152768
152769
152771
152771
152769
152770
152771
152772
152772
152772
152773
152775
152776
152774
152774
152774
152775
152776
152777
152778
152779
152780
152782
152781
152778
152778
152779
152780
152782
152783
152785
152787
152789
152790
152782
152782
152783
152784
152786
152788
152790
152793
152796
152799
152785
152785
152787
152788
152791
152793
152796
152799
152803
152808
152787
152788
152790